 Gaussian 16, Revision B.01,
 Gaussian 16:  EM64L-G16RevB.01 20-Dec-2017

 ---------------------------------------------------------
 # opt freq b3lyp/6-31+g(d) empiricaldispersion=gd3 volume
 ---------------------------------------------------------

 -------------------
 Title Card Required
 -------------------
 Symbolic Z-matrix:
 Charge =  0 Multiplicity = 1

 SCF Done:  E(RB3LYP) =  -767.360703991     A.U. after   16 cycles
 SCF Done:  E(RB3LYP) =  -767.362251235     A.U. after   13 cycles
 SCF Done:  E(RB3LYP) =  -767.362416298     A.U. after   13 cycles
 SCF Done:  E(RB3LYP) =  -767.362405812     A.U. after   13 cycles
 SCF Done:  E(RB3LYP) =  -767.362442705     A.U. after   13 cycles
 SCF Done:  E(RB3LYP) =  -767.362456361     A.U. after   11 cycles
 Optimization completed.
    -- Stationary point found.
 Normal termination of Gaussian 16 at Mon Sep 18 04:28:35 2023.

 ---------------------------------------------------------------------
 #N Geom=AllCheck Guess=TCheck SCRF=Check GenChk RB3LYP/6-31+G(d) Freq
 ---------------------------------------------------------------------

 Structure from the checkpoint file:  "molecule_30.chk"
 -------------------
 Title Card Required
 -------------------
 Charge =  0 Multiplicity = 1

                         Standard orientation:
 ---------------------------------------------------------------------
 Center     Atomic      Atomic             Coordinates (Angstroms)
 Number     Number       Type             X           Y           Z
 ---------------------------------------------------------------------
      1          6           0        3.969680   -1.435541   -0.000006
      2          6           0        2.585761   -1.362119   -0.000004
      3          6           0        1.926257   -0.110792    0.000008
      4          6           0        2.712458    1.056042    0.000016
      5          6           0        4.105907    0.989861    0.000012
      6          6           0        4.741767   -0.260701    0.000003
      7          1           0        4.482139   -2.392681   -0.000013
      8          1           0        1.995143   -2.273449   -0.000009
      9          1           0        2.223133    2.025701    0.000022
     10          1           0        4.678320    1.910332    0.000012
     11          6           0        0.506161   -0.035753    0.000011
     12          6           0       -0.710850    0.024005    0.000017
     13          6           0       -2.130175    0.091295    0.000032
     14          6           0       -2.904895   -1.094231    0.000062
     15          6           0       -2.790200    1.339677    0.000016
     16          6           0       -4.290196   -1.029452    0.000074
     17          1           0       -2.398413   -2.054793    0.000076
     18          6           0       -4.179597    1.395229    0.000027
     19          1           0       -2.200930    2.251625   -0.000007
     20          6           0       -4.942816    0.216708    0.000063
     21          1           0       -4.892585   -1.933277    0.000102
     22          1           0       -4.681716    2.360946    0.000014
     23          8           0        6.091596   -0.443136   -0.000015
     24          6           0        6.939150    0.701710    0.000165
     25          1           0        6.780581    1.314114   -0.897320
     26          1           0        6.780402    1.313961    0.897721
     27          1           0        7.958874    0.313492    0.000230
     28          6           0       -6.417444    0.296686    0.000104
     29          1           0       -6.830739    1.329472   -0.000511
     30          8           0       -7.169098   -0.664513   -0.000473
 ---------------------------------------------------------------------

 SCF Done:  E(RB3LYP) =  -767.362456361     A.U. after    2 cycles

 The electronic state is 1-A.
 Alpha  occ. eigenvalues --  -19.20477 -19.15590 -10.28196 -10.27313 -10.25893
 Alpha  occ. eigenvalues --  -10.24080 -10.22747 -10.22012 -10.21767 -10.21634
 Alpha  occ. eigenvalues --  -10.21558 -10.21511 -10.21478 -10.21369 -10.21198
 Alpha  occ. eigenvalues --  -10.20902 -10.20713 -10.20387  -1.08780  -1.04766
 Alpha  occ. eigenvalues --   -0.88393  -0.87767  -0.81155  -0.79162  -0.77155
 Alpha  occ. eigenvalues --   -0.77036  -0.74666  -0.71606  -0.67110  -0.63481
 Alpha  occ. eigenvalues --   -0.63128  -0.62098  -0.58722  -0.56386  -0.55137
 Alpha  occ. eigenvalues --   -0.52795  -0.50569  -0.50321  -0.48791  -0.47668
 Alpha  occ. eigenvalues --   -0.46714  -0.45623  -0.44513  -0.44354  -0.43755
 Alpha  occ. eigenvalues --   -0.43543  -0.41555  -0.41009  -0.40362  -0.39392
 Alpha  occ. eigenvalues --   -0.38405  -0.38351  -0.36657  -0.35766  -0.34848
 Alpha  occ. eigenvalues --   -0.31718  -0.28468  -0.27671  -0.27551  -0.26985
 Alpha  occ. eigenvalues --   -0.26471  -0.21937
 Alpha virt. eigenvalues --   -0.08743  -0.03383  -0.02774  -0.02745  -0.00633
 Alpha virt. eigenvalues --    0.00233   0.01149   0.01343   0.01597   0.02188
 Alpha virt. eigenvalues --    0.02802   0.03286   0.03442   0.03800   0.04457

 Mulliken charges:
               1
     1  C   -0.205939
     2  C   -0.400160
     3  C    0.339176
     4  C   -1.110871
     5  C    0.766710
     6  C   -0.059738
     7  H    0.197092
     8  H    0.198190
     9  H    0.196040
    10  H    0.181431
    11  C   -0.013739
    12  C   -0.045021
    13  C    0.104605
    14  C   -0.015466
    15  C   -0.211008
    16  C   -0.157264
    17  H    0.199008
    18  C   -0.965448
    19  H    0.197390
    20  C    0.698090
    21  H    0.219839
    22  H    0.188730
    23  O   -0.372149
    24  C   -0.324719
    25  H    0.206897
    26  H    0.206897
    27  H    0.212965
    28  C   -0.000312
    29  H    0.153807
    30  O   -0.385032
 Sum of Mulliken charges =   0.00000

 Dipole moment (field-independent basis, Debye):
    X=              5.9117    Y=              2.8803    Z=              0.0010  Tot=              6.5760
 Quadrupole moment (field-independent basis, Debye-Ang):
   XX=           -115.8364   YY=            -94.0043   ZZ=           -110.1390
   XY=             -3.6613   XZ=             -0.0041   YZ=             -0.0010

  Exact polarizability: 475.078   0.942 177.934   0.006   0.001  99.695
 Approx polarizability: 651.966   2.646 305.617   0.008   0.005 148.574

                      1                      2                      3
                      A                      A                      A
 Frequencies --     22.4592                29.9056                30.1230
 Red. masses --      4.2649                 5.1324                 6.1684
 Frc consts  --      0.0013                 0.0027                 0.0033
 IR Inten    --      0.0401                 0.0264                 0.0172

                      4                      5                      6
                      A                      A                      A
 Frequencies --     67.6571               104.2079               115.5952
 Red. masses --      4.9836                 4.5350                 6.2929
 Frc consts  --      0.0134                 0.0290                 0.0495
 IR Inten    --      2.8267                 0.0280                 1.7803

                      7                      8                      9
                      A                      A                      A
 Frequencies --    142.6920               195.8648               202.0732
 Red. masses --      4.7455                 7.5243                 3.0698
 Frc consts  --      0.0569                 0.1701                 0.0739
 IR Inten    --     11.5370                 0.2221                 0.2463

                     10                     11                     12
                      A                      A                      A
 Frequencies --    229.6603               254.7614               272.7009
 Red. masses --      5.1787                 1.5658                 3.8576
 Frc consts  --      0.1609                 0.0599                 0.1690
 IR Inten    --      6.6548                 0.8126                11.1077

                     13                     14                     15
                      A                      A                      A
 Frequencies --    294.6944               378.2835               413.5599
 Red. masses --      2.1853                 4.8356                 7.5214
 Frc consts  --      0.1118                 0.4077                 0.7579
 IR Inten    --      3.9678                 2.2849                 3.9951

                     16                     17                     18
                      A                      A                      A
 Frequencies --    420.0100               423.2983               473.0298
 Red. masses --      2.9497                 3.0345                 4.7463
 Frc consts  --      0.3066                 0.3204                 0.6257
 IR Inten    --      0.5464                 0.2061                 0.2111

                     19                     20                     21
                      A                      A                      A
 Frequencies --    474.5167               495.6049               536.3763
 Red. masses --      6.3608                 5.4474                 2.7458
 Frc consts  --      0.8439                 0.7883                 0.4654
 IR Inten    --      8.1888                 7.8112                25.6367

                     22                     23                     24
                      A                      A                      A
 Frequencies --    552.5177               561.7057               576.0090
 Red. masses --      7.0747                 3.2737                 5.9709
 Frc consts  --      1.2725                 0.6086                 1.1672
 IR Inten    --      0.0579                 3.1295                 8.8985

                     25                     26                     27
                      A                      A                      A
 Frequencies --    648.7498               654.2459               682.1093
 Red. masses --      7.1368                 7.1607                 6.3132
 Frc consts  --      1.7697                 1.8059                 1.7307
 IR Inten    --      5.7580                 1.5971                37.7461

                     28                     29                     30
                      A                      A                      A
 Frequencies --    718.2863               723.0742               783.8159
 Red. masses --      3.9040                 3.9642                 5.2911
 Frc consts  --      1.1867                 1.2212                 1.9152
 IR Inten    --      0.2950                 0.5249                 5.7994

                     31                     32                     33
                      A                      A                      A
 Frequencies --    820.0997               838.4929               842.2364
 Red. masses --      1.2809                 5.3434                 1.4339
 Frc consts  --      0.5076                 2.2134                 0.5993
 IR Inten    --      6.5203                65.3250                21.6742

                     34                     35                     36
                      A                      A                      A
 Frequencies --    847.8992               856.7397               873.5745
 Red. masses --      1.6440                 1.3206                 6.2801
 Frc consts  --      0.6964                 0.5711                 2.8237
 IR Inten    --     71.2907                20.1787                11.7033

                     37                     38                     39
                      A                      A                      A
 Frequencies --    952.2007               971.6140               971.9545
 Red. masses --      1.3259                 1.3187                 1.3223
 Frc consts  --      0.7083                 0.7335                 0.7360
 IR Inten    --      0.1633                 0.0962                 0.0004

                     40                     41                     42
                      A                      A                      A
 Frequencies --    995.3738              1027.5266              1027.8212
 Red. masses --      1.3524                 1.7632                 2.8306
 Frc consts  --      0.7894                 1.0968                 1.7618
 IR Inten    --      0.0003                 1.6162                 0.3061

                     43                     44                     45
                      A                      A                      A
 Frequencies --   1033.3717              1062.4939              1146.4422
 Red. masses --      2.7704                 6.4231                 1.4051
 Frc consts  --      1.7430                 4.2721                 1.0881
 IR Inten    --      0.0231                73.7317                 5.3106

                     46                     47                     48
                      A                      A                      A
 Frequencies --   1148.6513              1160.5672              1180.1398
 Red. masses --      1.3545                 3.6729                 1.2693
 Frc consts  --      1.0529                 2.9147                 1.0416
 IR Inten    --     14.4865               166.2663                 1.0240

                     49                     50                     51
                      A                      A                      A
 Frequencies --   1206.4542              1213.0042              1218.4232
 Red. masses --      1.3582                 1.2948                 1.2865
 Frc consts  --      1.1647                 1.1224                 1.1253
 IR Inten    --     91.0585                15.3267               105.4857

                     52                     53                     54
                      A                      A                      A
 Frequencies --   1240.9111              1294.7378              1328.3018
 Red. masses --      2.1608                 4.1355                 2.4371
 Frc consts  --      1.9604                 4.0845                 2.5335
 IR Inten    --     91.7596               408.6153                27.3143

                     55                     56                     57
                      A                      A                      A
 Frequencies --   1334.4736              1342.5860              1345.1300
 Red. masses --      2.1896                 2.2140                 2.0833
 Frc consts  --      2.2974                 2.3514                 2.2209
 IR Inten    --     45.3355                49.2983                38.9850

                     58                     59                     60
                      A                      A                      A
 Frequencies --   1359.5788              1431.1410              1457.7532
 Red. masses --      4.4088                 1.5510                 2.0790
 Frc consts  --      4.8015                 1.8716                 2.6030
 IR Inten    --      9.5814                15.6512                 5.3251

                     61                     62                     63
                      A                      A                      A
 Frequencies --   1459.6401              1493.3007              1519.3192
 Red. masses --      2.8896                 1.1841                 1.0459
 Frc consts  --      3.6272                 1.5557                 1.4224
 IR Inten    --      9.2177                28.0672                 8.6406

                     64                     65                     66
                      A                      A                      A
 Frequencies --   1525.7990              1540.4887              1560.8019
 Red. masses --      1.0646                 2.2764                 2.7356
 Frc consts  --      1.4602                 3.1829                 3.9265
 IR Inten    --     65.1496                33.0534               121.1492

                     67                     68                     69
                      A                      A                      A
 Frequencies --   1592.8568              1603.2055              1645.1469
 Red. masses --      6.0629                 6.3103                 5.2431
 Frc consts  --      9.0633                 9.5561                 8.3607
 IR Inten    --     65.1942                15.9817               643.0422

                     70                     71                     72
                      A                      A                      A
 Frequencies --   1661.7092              1764.7857              2296.7262
 Red. masses --      5.6011                 9.6147                11.9961
 Frc consts  --      9.1124                17.6429                37.2827
 IR Inten    --      4.7969               497.1192               257.3530

                     73                     74                     75
                      A                      A                      A
 Frequencies --   2911.3850              3025.1263              3087.9390
 Red. masses --      1.0839                 1.0342                 1.1071
 Frc consts  --      5.4128                 5.5761                 6.2198
 IR Inten    --    166.7155                80.9190                36.9157

                     76                     77                     78
                      A                      A                      A
 Frequencies --   3160.4110              3175.1665              3200.0421
 Red. masses --      1.1001                 1.0889                 1.0887
 Frc consts  --      6.4742                 6.4681                 6.5688
 IR Inten    --     24.8524                13.5676                 9.1194

                     79                     80                     81
                      A                      A                      A
 Frequencies --   3200.7439              3201.0184              3209.4131
 Red. masses --      1.0890                 1.0884                 1.0934
 Frc consts  --      6.5733                 6.5705                 6.6355
 IR Inten    --      1.9390                 2.7545                 8.7050

                     82                     83                     84
                      A                      A                      A
 Frequencies --   3216.7874              3216.9716              3226.3584
 Red. masses --      1.0949                 1.0950                 1.0925
 Frc consts  --      6.6752                 6.6769                 6.7003
 IR Inten    --      0.9007                10.1549                13.9974

 - Thermochemistry -
 -------------------
 Temperature   298.150 Kelvin.  Pressure   1.00000 Atm.
 Atom     1 has atomic number  6 and mass  12.00000

 Molecular mass:   236.08373 amu.
 Principal axes and moments of inertia in atomic units:
                           1         2         3
     Eigenvalues --   740.54431********************
           X            1.00000   0.00179  -0.00001
           Y           -0.00179   1.00000  -0.00003
           Z            0.00001   0.00003   1.00000
 This molecule is an asymmetric top.
 Rotational symmetry number  1.
 Warning -- assumption of classical behavior for rotation
           may cause significant error
 Rotational temperatures (Kelvin)      0.11696     0.00521     0.00499
 Rotational constants (GHZ):           2.43705     0.10853     0.10398
 Zero-point vibrational energy     613100.7 (Joules/Mol)
                                  146.53457 (Kcal/Mol)
 Warning -- explicit consideration of  24 degrees of freedom as
           vibrations may cause significant error
 Vibrational temperatures:     32.31    43.03    43.34    97.34   149.93
          (Kelvin)            166.32   205.30   281.81   290.74   330.43
                              366.54   392.36   424.00   544.27   595.02
                              604.30   609.03   680.58   682.72   713.06
                              771.73   794.95   808.17   828.75   933.41
                              941.31   981.40  1033.45  1040.34  1127.74
                             1179.94  1206.40  1211.79  1219.94  1232.66
                             1256.88  1370.00  1397.94  1398.43  1432.12
                             1478.38  1478.81  1486.79  1528.69  1649.47
                             1652.65  1669.80  1697.96  1735.82  1745.24
                             1753.04  1785.39  1862.84  1911.13  1920.01
                             1931.68  1935.34  1956.13  2059.09  2097.38
                             2100.10  2148.53  2185.96  2195.28  2216.42
                             2245.65  2291.77  2306.66  2367.00  2390.83
                             2539.13  3304.48  4188.83  4352.48  4442.86
                             4547.13  4568.36  4604.15  4605.16  4605.55
                             4617.63  4628.24  4628.50  4642.01

 Zero-point correction=                           0.233518 (Hartree/Particle)
 Thermal correction to Energy=                    0.249173
 Thermal correction to Enthalpy=                  0.250117
 Thermal correction to Gibbs Free Energy=         0.188008
 Sum of electronic and zero-point Energies=           -767.128939
 Sum of electronic and thermal Energies=              -767.113283
 Sum of electronic and thermal Enthalpies=            -767.112339
 Sum of electronic and thermal Free Energies=         -767.174448

                     E (Thermal)             CV                S
                      KCal/Mol        Cal/Mol-Kelvin    Cal/Mol-Kelvin
 Total                  156.358             59.253            130.720
 Electronic               0.000              0.000              0.000
 Translational            0.889              2.981             42.279
 Rotational               0.889              2.981             33.724
 Vibrational            154.581             53.292             54.717
 Vibration     1          0.593              1.985              6.404
 Vibration     2          0.594              1.984              5.836
 Vibration     3          0.594              1.984              5.821
 Vibration     4          0.598              1.970              4.220
 Vibration     5          0.605              1.946              3.374
 Vibration     6          0.608              1.936              3.173
 Vibration     7          0.616              1.911              2.767
 Vibration     8          0.636              1.846              2.172
 Vibration     9          0.639              1.837              2.114
 Vibration    10          0.652              1.796              1.882
 Vibration    11          0.665              1.755              1.697
 Vibration    12          0.676              1.724              1.579
 Vibration    13          0.689              1.684              1.447
 Vibration    14          0.749              1.516              1.046
 Vibration    15          0.777              1.441              0.914
 Vibration    16          0.783              1.427              0.892
 Vibration    17          0.785              1.420              0.881
 Vibration    18          0.830              1.310              0.729
 Vibration    19          0.831              1.307              0.725
 Vibration    20          0.851              1.260              0.669
 Vibration    21          0.891              1.170              0.573
 Vibration    22          0.908              1.134              0.539
 Vibration    23          0.917              1.114              0.520
 Vibration    24          0.932              1.083              0.493

 Optimization completed.
    -- Stationary point found.
 Normal termination of Gaussian 16 at Mon Sep 18 04:34:06 2023.
