 Gaussian 16, Revision B.01,
 Gaussian 16:  EM64L-G16RevB.01 20-Dec-2017

 ----------------------------------------------------------------------
 # opt freq b3lyp/6-31+g(d) geom=connectivity empiricaldispersion=gd3 v
 olume
 ----------------------------------------------------------------------

 -------------
 ML molecule94
 -------------
 Symbolic Z-matrix:
 Charge =  0 Multiplicity = 1

 SCF Done:  E(RB3LYP) =  -577.776664447     A.U. after   15 cycles
 SCF Done:  E(RB3LYP) =  -577.804996924     A.U. after   16 cycles
 SCF Done:  E(RB3LYP) =  -577.832968763     A.U. after   15 cycles
 SCF Done:  E(RB3LYP) =  -577.850150131     A.U. after   13 cycles
 SCF Done:  E(RB3LYP) =  -577.857679873     A.U. after   15 cycles
 SCF Done:  E(RB3LYP) =  -577.863960319     A.U. after   15 cycles
 SCF Done:  E(RB3LYP) =  -577.866866870     A.U. after   15 cycles
 SCF Done:  E(RB3LYP) =  -577.869029682     A.U. after   15 cycles
 SCF Done:  E(RB3LYP) =  -577.869562825     A.U. after   16 cycles
 SCF Done:  E(RB3LYP) =  -577.869911983     A.U. after   13 cycles
 SCF Done:  E(RB3LYP) =  -577.869958729     A.U. after   13 cycles
 SCF Done:  E(RB3LYP) =  -577.869978580     A.U. after   12 cycles
 SCF Done:  E(RB3LYP) =  -577.869995330     A.U. after   13 cycles
 SCF Done:  E(RB3LYP) =  -577.870004816     A.U. after   12 cycles
 SCF Done:  E(RB3LYP) =  -577.870007057     A.U. after   11 cycles
 SCF Done:  E(RB3LYP) =  -577.870007265     A.U. after    9 cycles
 Optimization completed.
    -- Stationary point found.
 Normal termination of Gaussian 16 at Fri Sep 15 06:21:29 2023.

 ---------------------------------------------------------------------
 #N Geom=AllCheck Guess=TCheck SCRF=Check GenChk RB3LYP/6-31+G(d) Freq
 ---------------------------------------------------------------------

 Structure from the checkpoint file:  "molecule_94.chk"
 -------------
 ML molecule94
 -------------
 Charge =  0 Multiplicity = 1

                         Standard orientation:
 ---------------------------------------------------------------------
 Center     Atomic      Atomic             Coordinates (Angstroms)
 Number     Number       Type             X           Y           Z
 ---------------------------------------------------------------------
      1          6           0       -4.078532   -0.924319    0.190739
      2          6           0       -2.929898   -1.391076    0.837213
      3          6           0       -1.726279   -0.686352    0.751603
      4          6           0       -1.678597    0.494089    0.002128
      5          6           0       -2.819779    0.973086   -0.646996
      6          6           0       -4.017377    0.262323   -0.547625
      7          1           0       -2.967199   -2.308031    1.420088
      8          1           0       -2.750633    1.894804   -1.216849
      9          1           0       -4.903710    0.636205   -1.053886
     10          8           0       -0.546311    1.281623   -0.083492
     11          6           0        0.710394    0.698336   -0.065802
     12          6           0        1.029485   -0.401701   -0.867752
     13          6           0        1.688429    1.303602    0.721111
     14          6           0        2.334037   -0.895568   -0.862001
     15          6           0        2.992311    0.800455    0.707369
     16          1           0        1.420565    2.163451    1.327823
     17          6           0        3.338387   -0.308696   -0.075795
     18          1           0        2.577728   -1.750086   -1.490271
     19          1           0        3.750929    1.280925    1.321583
     20          1           0       -0.835834   -1.044199    1.258225
     21          1           0        0.263749   -0.859268   -1.486720
     22          1           0       -5.010786   -1.477617    0.262980
     23          6           0        4.740346   -0.874843   -0.061891
     24          1           0        4.807717   -1.752340    0.595547
     25          1           0        5.053446   -1.194433   -1.062836
     26          1           0        5.466955   -0.138413    0.298459
 ---------------------------------------------------------------------

 SCF Done:  E(RB3LYP) =  -577.870007265     A.U. after    1 cycles

 The electronic state is 1-A.
 Alpha  occ. eigenvalues --  -19.19555 -10.25847 -10.25529 -10.20497 -10.20198
 Alpha  occ. eigenvalues --  -10.20137 -10.19981 -10.19917 -10.19913 -10.19805
 Alpha  occ. eigenvalues --  -10.19707 -10.19605 -10.19523 -10.19081  -1.08288
 Alpha  occ. eigenvalues --   -0.86857  -0.85510  -0.78369  -0.75710  -0.75459
 Alpha  occ. eigenvalues --   -0.74492  -0.68994  -0.63041  -0.62391  -0.61205
 Alpha  occ. eigenvalues --   -0.58130  -0.55145  -0.50848  -0.48845  -0.47605
 Alpha  occ. eigenvalues --   -0.47504  -0.45284  -0.44523  -0.43109  -0.43022
 Alpha  occ. eigenvalues --   -0.42550  -0.41523  -0.40053  -0.38693  -0.37286
 Alpha  occ. eigenvalues --   -0.36421  -0.36282  -0.35613  -0.34127  -0.32884
 Alpha  occ. eigenvalues --   -0.26412  -0.25830  -0.25147  -0.22275
 Alpha virt. eigenvalues --   -0.02534  -0.01770  -0.01043  -0.00110   0.00269
 Alpha virt. eigenvalues --    0.01016   0.02304   0.02431   0.02737   0.03586
 Alpha virt. eigenvalues --    0.04539   0.04776   0.05315   0.05368   0.05613

 Mulliken charges:
               1
     1  C   -0.173849
     2  C   -0.304242
     3  C    0.308394
     4  C   -0.159381
     5  C   -0.184079
     6  C   -0.283190
     7  H    0.180932
     8  H    0.190574
     9  H    0.181325
    10  O   -0.348456
    11  C   -0.125349
    12  C    0.358005
    13  C   -0.107566
    14  C   -0.215562
    15  C   -0.569721
    16  H    0.190938
    17  C    0.334180
    18  H    0.177120
    19  H    0.176922
    20  H    0.197910
    21  H    0.194370
    22  H    0.177388
    23  C   -0.840085
    24  H    0.224928
    25  H    0.212261
    26  H    0.206235
 Sum of Mulliken charges =   0.00000

 Dipole moment (field-independent basis, Debye):
    X=              0.6867    Y=             -1.1800    Z=              0.0708  Tot=              1.3671
 Quadrupole moment (field-independent basis, Debye-Ang):
   XX=            -72.7825   YY=            -81.4377   ZZ=            -83.4580
   XY=              0.0254   XZ=              2.8783   YZ=              0.2135

  Exact polarizability: 220.845  -0.498 135.024  11.585   0.927 112.609
 Approx polarizability: 292.726  -0.710 228.593  25.290   2.385 182.413

                      1                      2                      3
                      A                      A                      A
 Frequencies --     19.5397                27.6380                43.8801
 Red. masses --      2.7322                 1.2243                 3.7242
 Frc consts  --      0.0006                 0.0006                 0.0042
 IR Inten    --      0.8774                 0.6520                 0.1882

                      4                      5                      6
                      A                      A                      A
 Frequencies --     73.5336               156.2239               216.6928
 Red. masses --      4.0376                 4.1383                 4.3627
 Frc consts  --      0.0129                 0.0595                 0.1207
 IR Inten    --      0.2802                 1.0222                 0.4431

                      7                      8                      9
                      A                      A                      A
 Frequencies --    288.2111               322.9048               334.8493
 Red. masses --      4.6689                 4.1638                 3.8879
 Frc consts  --      0.2285                 0.2558                 0.2568
 IR Inten    --      0.9853                 1.0196                 1.0738

                     10                     11                     12
                      A                      A                      A
 Frequencies --    414.7440               422.3029               426.9812
 Red. masses --      4.0057                 3.0373                 3.0403
 Frc consts  --      0.4060                 0.3191                 0.3266
 IR Inten    --      3.5086                 0.2369                 0.1604

                     13                     14                     15
                      A                      A                      A
 Frequencies --    488.7575               511.2949               532.6445
 Red. masses --      3.3554                 2.7144                 5.9479
 Frc consts  --      0.4723                 0.4181                 0.9942
 IR Inten    --     10.7960                25.0632                 1.0337

                     16                     17                     18
                      A                      A                      A
 Frequencies --    609.3800               627.4468               655.6459
 Red. masses --      4.6181                 6.4409                 6.8410
 Frc consts  --      1.0104                 1.4940                 1.7326
 IR Inten    --      0.7541                 0.5124                 0.0779

                     19                     20                     21
                      A                      A                      A
 Frequencies --    698.7322               712.5144               739.0717
 Red. masses --      2.4294                 3.5989                 2.6704
 Frc consts  --      0.6988                 1.0765                 0.8594
 IR Inten    --     22.7179                 2.9625                10.2573

                     22                     23                     24
                      A                      A                      A
 Frequencies --    772.4756               817.6496               836.6971
 Red. masses --      1.8586                 3.7754                 1.2694
 Frc consts  --      0.6535                 1.4871                 0.5236
 IR Inten    --     58.2717                 6.4993                 0.4064

                     25                     26                     27
                      A                      A                      A
 Frequencies --    840.6619               846.9932               888.8856
 Red. masses --      1.2524                 1.8134                 5.7352
 Frc consts  --      0.5215                 0.7665                 2.6699
 IR Inten    --      1.4537                39.4454                35.8587

                     28                     29                     30
                      A                      A                      A
 Frequencies --    911.8764               955.1580               970.0199
 Red. masses --      1.4922                 1.3026                 1.3456
 Frc consts  --      0.7311                 0.7002                 0.7460
 IR Inten    --      5.5899                 0.5687                 0.1993

                     31                     32                     33
                      A                      A                      A
 Frequencies --    973.1151               992.0462              1014.6013
 Red. masses --      1.3449                 1.2621                 6.0955
 Frc consts  --      0.7504                 0.7318                 3.6970
 IR Inten    --      0.1578                 0.1890                 0.2059

                     34                     35                     36
                      A                      A                      A
 Frequencies --   1020.8873              1036.7285              1049.3881
 Red. masses --      1.3983                 2.7367                 2.0891
 Frc consts  --      0.8586                 1.7330                 1.3554
 IR Inten    --      0.6305                 5.7088                 8.3969

                     37                     38                     39
                      A                      A                      A
 Frequencies --   1072.8763              1108.7735              1146.8627
 Red. masses --      1.5037                 1.5234                 1.2941
 Frc consts  --      1.0198                 1.1034                 1.0029
 IR Inten    --      8.5070                 7.1864                 8.6127

                     40                     41                     42
                      A                      A                      A
 Frequencies --   1194.3528              1199.5917              1206.1291
 Red. masses --      1.1519                 1.3734                 1.1979
 Frc consts  --      0.9681                 1.1644                 1.0267
 IR Inten    --      3.6808                 3.9711                26.5046

                     43                     44                     45
                      A                      A                      A
 Frequencies --   1227.8589              1236.8704              1278.1261
 Red. masses --      2.9938                 2.1726                 5.6333
 Frc consts  --      2.6593                 1.9583                 5.4220
 IR Inten    --      6.9505                 7.0544               546.6190

                     46                     47                     48
                      A                      A                      A
 Frequencies --   1328.2091              1345.6981              1348.9951
 Red. masses --      2.5086                 1.5527                 3.0411
 Frc consts  --      2.6074                 1.6566                 3.2607
 IR Inten    --      0.7170                 4.1404                 0.1972

                     49                     50                     51
                      A                      A                      A
 Frequencies --   1364.1694              1440.4683              1451.7368
 Red. masses --      2.4532                 1.2342                 2.6195
 Frc consts  --      2.6898                 1.5089                 3.2527
 IR Inten    --      9.2756                 0.2360                 0.8237

                     52                     53                     54
                      A                      A                      A
 Frequencies --   1496.1140              1511.6989              1517.1814
 Red. masses --      2.2439                 1.0528                 1.1026
 Frc consts  --      2.9592                 1.4176                 1.4953
 IR Inten    --      0.5752                 8.0207                 7.9475

                     55                     56                     57
                      A                      A                      A
 Frequencies --   1532.0609              1552.0474              1629.6892
 Red. masses --      2.2136                 2.4928                 5.9609
 Frc consts  --      3.0612                 3.5380                 9.3276
 IR Inten    --    174.7896               118.5208                 7.5904

                     58                     59                     60
                      A                      A                      A
 Frequencies --   1640.6161              1647.5823              1664.4819
 Red. masses --      5.9225                 5.6839                 5.7813
 Frc consts  --      9.3922                 9.0906                 9.4370
 IR Inten    --     31.7919                83.8974                 2.1612

                     61                     62                     63
                      A                      A                      A
 Frequencies --   3032.9354              3086.8043              3113.0202
 Red. masses --      1.0398                 1.0969                 1.1020
 Frc consts  --      5.6352                 6.1578                 6.2923
 IR Inten    --     43.9247                20.8771                18.2694

                     64                     65                     66
                      A                      A                      A
 Frequencies --   3173.1187              3177.0944              3180.0639
 Red. masses --      1.0891                 1.0891                 1.0856
 Frc consts  --      6.4608                 6.4769                 6.4684
 IR Inten    --     18.8283                21.2819                 1.3559

                     67                     68                     69
                      A                      A                      A
 Frequencies --   3188.8041              3203.5353              3209.2885
 Red. masses --      1.0895                 1.0929                 1.0929
 Frc consts  --      6.5271                 6.6086                 6.6321
 IR Inten    --     13.7408                31.3391                 8.2630

                     70                     71                     72
                      A                      A                      A
 Frequencies --   3210.2972              3212.8375              3216.3783
 Red. masses --      1.0935                 1.0946                 1.0945
 Frc consts  --      6.6396                 6.6568                 6.6712
 IR Inten    --      4.7336                11.5951                 1.4738

 - Thermochemistry -
 -------------------
 Temperature   298.150 Kelvin.  Pressure   1.00000 Atm.
 Atom     1 has atomic number  6 and mass  12.00000

 Molecular mass:   184.08882 amu.
 Principal axes and moments of inertia in atomic units:
                           1         2         3
     Eigenvalues --   836.579845479.839315812.12985
           X            0.99999  -0.00418   0.00259
           Y            0.00416   0.99997   0.00704
           Z           -0.00262  -0.00703   0.99997
 This molecule is an asymmetric top.
 Rotational symmetry number  1.
 Warning -- assumption of classical behavior for rotation
           may cause significant error
 Rotational temperatures (Kelvin)      0.10353     0.01581     0.01490
 Rotational constants (GHZ):           2.15729     0.32934     0.31051
 Zero-point vibrational energy     558635.4 (Joules/Mol)
                                  133.51706 (Kcal/Mol)
 Warning -- explicit consideration of  16 degrees of freedom as
           vibrations may cause significant error
 Vibrational temperatures:     28.11    39.76    63.13   105.80   224.77
          (Kelvin)            311.77   414.67   464.59   481.77   596.72
                              607.60   614.33   703.21   735.64   766.36
                              876.76   902.76   943.33  1005.32  1025.15
                             1063.36  1111.42  1176.42  1203.82  1209.53
                             1218.63  1278.91  1311.99  1374.26  1395.64
                             1400.10  1427.33  1459.79  1468.83  1491.62
                             1509.84  1543.63  1595.28  1650.08  1718.41
                             1725.94  1735.35  1766.62  1779.58  1838.94
                             1911.00  1936.16  1940.90  1962.74  2072.51
                             2088.73  2152.57  2175.00  2182.89  2204.29
                             2233.05  2344.76  2360.48  2370.50  2394.82
                             4363.72  4441.22  4478.94  4565.41  4571.13
                             4575.40  4587.98  4609.17  4617.45  4618.90
                             4622.56  4627.65

 Zero-point correction=                           0.212773 (Hartree/Particle)
 Thermal correction to Energy=                    0.224676
 Thermal correction to Enthalpy=                  0.225620
 Thermal correction to Gibbs Free Energy=         0.172022
 Sum of electronic and zero-point Energies=           -577.657234
 Sum of electronic and thermal Energies=              -577.645331
 Sum of electronic and thermal Enthalpies=            -577.644387
 Sum of electronic and thermal Free Energies=         -577.697986

                     E (Thermal)             CV                S
                      KCal/Mol        Cal/Mol-Kelvin    Cal/Mol-Kelvin
 Total                  140.987             46.031            112.808
 Electronic               0.000              0.000              0.000
 Translational            0.889              2.981             41.537
 Rotational               0.889              2.981             31.655
 Vibrational            139.209             40.070             39.616
 Vibration     1          0.593              1.986              6.680
 Vibration     2          0.593              1.984              5.992
 Vibration     3          0.595              1.980              5.076
 Vibration     4          0.599              1.966              4.056
 Vibration     5          0.620              1.896              2.595
 Vibration     6          0.646              1.816              1.987
 Vibration     7          0.685              1.696              1.484
 Vibration     8          0.708              1.630              1.295
 Vibration     9          0.716              1.606              1.237
 Vibration    10          0.778              1.438              0.910
 Vibration    11          0.785              1.422              0.884
 Vibration    12          0.789              1.412              0.869
 Vibration    13          0.845              1.275              0.687
 Vibration    14          0.866              1.225              0.630
 Vibration    15          0.888              1.178              0.581
 Vibration    16          0.968              1.012              0.434

                           ! Non-Optimized Parameters !
 Normal termination of Gaussian 16 at Fri Sep 15 06:25:14 2023.
