 Gaussian 16, Revision B.01,
 Gaussian 16:  EM64L-G16RevB.01 20-Dec-2017

 ----------------------------------------------------------------------
 # opt freq b3lyp/6-31+g(d) geom=connectivity empiricaldispersion=gd3 v
 olume
 ----------------------------------------------------------------------

 -------------
 ML molecule73
 -------------
 Symbolic Z-matrix:
 Charge =  0 Multiplicity = 1

 SCF Done:  E(RB3LYP) =  -782.278275717     A.U. after   16 cycles
 SCF Done:  E(RB3LYP) =  -782.309432486     A.U. after   17 cycles
 SCF Done:  E(RB3LYP) =  -782.335985087     A.U. after   17 cycles
 SCF Done:  E(RB3LYP) =  -782.355760821     A.U. after   16 cycles
 SCF Done:  E(RB3LYP) =  -782.356003944     A.U. after   17 cycles
 SCF Done:  E(RB3LYP) =  -782.362272125     A.U. after   18 cycles
 SCF Done:  E(RB3LYP) =  -782.361651959     A.U. after   17 cycles
 SCF Done:  E(RB3LYP) =  -782.369570160     A.U. after   17 cycles
 SCF Done:  E(RB3LYP) =  -782.372516701     A.U. after   17 cycles
 SCF Done:  E(RB3LYP) =  -782.375108288     A.U. after   15 cycles
 SCF Done:  E(RB3LYP) =  -782.388572762     A.U. after   17 cycles
 SCF Done:  E(RB3LYP) =  -782.388668039     A.U. after   15 cycles
 SCF Done:  E(RB3LYP) =  -782.389108739     A.U. after   15 cycles
 SCF Done:  E(RB3LYP) =  -782.389265384     A.U. after   14 cycles
 SCF Done:  E(RB3LYP) =  -782.389301758     A.U. after   14 cycles
 SCF Done:  E(RB3LYP) =  -782.389315650     A.U. after   13 cycles
 SCF Done:  E(RB3LYP) =  -782.389319140     A.U. after   12 cycles
 SCF Done:  E(RB3LYP) =  -782.389319817     A.U. after   12 cycles
 SCF Done:  E(RB3LYP) =  -782.389319838     A.U. after   10 cycles
 Optimization completed.
    -- Stationary point found.
 Normal termination of Gaussian 16 at Sat Sep 16 15:12:49 2023.

 ---------------------------------------------------------------------
 #N Geom=AllCheck Guess=TCheck SCRF=Check GenChk RB3LYP/6-31+G(d) Freq
 ---------------------------------------------------------------------

 Structure from the checkpoint file:  "molecule_73.chk"
 -------------
 ML molecule73
 -------------
 Charge =  0 Multiplicity = 1

                         Standard orientation:
 ---------------------------------------------------------------------
 Center     Atomic      Atomic             Coordinates (Angstroms)
 Number     Number       Type             X           Y           Z
 ---------------------------------------------------------------------
      1          6           0       -2.774188   -0.121081   -0.048231
      2          6           0       -1.729783   -1.023137    0.160849
      3          6           0       -0.416141   -0.611126   -0.044905
      4          6           0       -0.162644    0.705596   -0.457304
      5          6           0       -1.220394    1.604854   -0.667129
      6          6           0       -2.529435    1.193030   -0.463187
      7          1           0       -1.950769   -2.034924    0.479744
      8          1           0       -0.992013    2.616259   -0.987249
      9          1           0       -3.360313    1.870908   -0.618293
     10          8           0        1.090243    1.198344   -0.686001
     11          6           0        2.205192    0.399107   -0.413733
     12          6           0        2.807671   -0.272351   -1.473984
     13          6           0        2.712425    0.357870    0.892754
     14          6           0        3.958245   -1.029129   -1.238332
     15          6           0        3.867145   -0.408998    1.100979
     16          6           0        4.485858   -1.098106    0.053569
     17          1           0        4.436613   -1.557120   -2.058514
     18          1           0        4.288233   -0.460055    2.102494
     19          1           0        0.404355   -1.302741    0.109761
     20          1           0        2.370816   -0.192707   -2.465018
     21          7           0       -4.154366   -0.558894    0.171112
     22          8           0       -5.057992    0.259218   -0.024172
     23          8           0       -4.341106   -1.722260    0.539845
     24          1           0        5.381419   -1.682379    0.246874
     25          6           0        2.033077    1.111200    2.008776
     26          1           0        1.873835    2.160556    1.735738
     27          1           0        1.046031    0.687724    2.234122
     28          1           0        2.631036    1.077943    2.924444
 ---------------------------------------------------------------------

 SCF Done:  E(RB3LYP) =  -782.389319838     A.U. after    1 cycles

 The electronic state is 1-A.
 Alpha  occ. eigenvalues --  -19.22243 -19.19092 -19.19081 -14.57916 -10.29313
 Alpha  occ. eigenvalues --  -10.27067 -10.25935 -10.23387 -10.23268 -10.22602
 Alpha  occ. eigenvalues --  -10.22499 -10.22349 -10.21678 -10.21609 -10.21525
 Alpha  occ. eigenvalues --  -10.21409 -10.20382  -1.23011  -1.11112  -1.05721
 Alpha  occ. eigenvalues --   -0.90203  -0.88082  -0.81874  -0.79712  -0.78861
 Alpha  occ. eigenvalues --   -0.76892  -0.71863  -0.69956  -0.65866  -0.63500
 Alpha  occ. eigenvalues --   -0.62300  -0.59812  -0.57427  -0.55834  -0.53691
 Alpha  occ. eigenvalues --   -0.52770  -0.51336  -0.50361  -0.49974  -0.48074
 Alpha  occ. eigenvalues --   -0.46609  -0.46048  -0.44313  -0.44031  -0.43722
 Alpha  occ. eigenvalues --   -0.42875  -0.42158  -0.41212  -0.38695  -0.38079
 Alpha  occ. eigenvalues --   -0.37789  -0.36351  -0.35593  -0.31820  -0.31752
 Alpha  occ. eigenvalues --   -0.29858  -0.29014  -0.27344  -0.26659  -0.26155
 Alpha virt. eigenvalues --   -0.09860  -0.04446  -0.03116  -0.02990  -0.00805
 Alpha virt. eigenvalues --   -0.00676   0.00361   0.00904   0.01616   0.02124
 Alpha virt. eigenvalues --    0.02988   0.03374   0.03980   0.04672   0.05211

 Mulliken charges:
               1
     1  C   -0.086391
     2  C   -0.535496
     3  C    0.615976
     4  C    0.164606
     5  C   -0.883974
     6  C    0.092150
     7  H    0.232328
     8  H    0.205834
     9  H    0.231348
    10  O   -0.309333
    11  C   -0.135968
    12  C   -0.004243
    13  C    1.004792
    14  C   -0.181771
    15  C   -0.838655
    16  C   -0.126541
    17  H    0.187248
    18  H    0.184276
    19  H    0.219164
    20  H    0.197522
    21  N   -0.348536
    22  O   -0.029977
    23  O   -0.033865
    24  H    0.184414
    25  C   -0.690210
    26  H    0.239599
    27  H    0.237195
    28  H    0.208510
 Sum of Mulliken charges =   0.00000

 Dipole moment (field-independent basis, Debye):
    X=              6.0951    Y=              0.6910    Z=             -0.0535  Tot=              6.1343
 Quadrupole moment (field-independent basis, Debye-Ang):
   XX=           -122.5578   YY=            -98.1085   ZZ=            -94.2835
   XY=            -11.3371   XZ=              4.3608   YZ=              1.7654

  Exact polarizability: 246.267 -15.131 148.145  -3.617  -3.481 134.134
 Approx polarizability: 336.974 -29.204 270.213  -4.686 -19.729 218.723

                      1                      2                      3
                      A                      A                      A
 Frequencies --     25.8925                38.1815                61.3277
 Red. masses --      4.8821                 5.4992                 6.1854
 Frc consts  --      0.0019                 0.0047                 0.0137
 IR Inten    --      0.2614                 0.0333                 0.3246

                      4                      5                      6
                      A                      A                      A
 Frequencies --     70.5147               101.1647               122.8820
 Red. masses --      5.2988                 3.7979                 1.2496
 Frc consts  --      0.0155                 0.0229                 0.0111
 IR Inten    --      0.0628                 2.8381                 0.4439

                      7                      8                      9
                      A                      A                      A
 Frequencies --    169.1931               208.4983               263.9385
 Red. masses --      3.2645                 6.6244                 4.4758
 Frc consts  --      0.0551                 0.1697                 0.1837
 IR Inten    --      0.3338                 1.9889                 3.2916

                     10                     11                     12
                      A                      A                      A
 Frequencies --    277.8734               314.5523               328.0332
 Red. masses --      4.9889                 4.8782                 5.2440
 Frc consts  --      0.2270                 0.2844                 0.3325
 IR Inten    --      2.5511                 0.4285                 0.6175

                     13                     14                     15
                      A                      A                      A
 Frequencies --    407.6097               427.5804               447.5844
 Red. masses --      6.7443                 3.1130                 3.8626
 Frc consts  --      0.6602                 0.3353                 0.4559
 IR Inten    --      0.3642                 0.0540                 4.1780

                     16                     17                     18
                      A                      A                      A
 Frequencies --    470.4320               501.4538               523.3965
 Red. masses --      3.2891                 3.0526                 5.4903
 Frc consts  --      0.4289                 0.4522                 0.8861
 IR Inten    --      5.6559                 5.2638                 3.9307

                     19                     20                     21
                      A                      A                      A
 Frequencies --    539.8383               563.1067               618.8751
 Red. masses --      5.3156                 5.6208                 5.6859
 Frc consts  --      0.9127                 1.0501                 1.2831
 IR Inten    --      1.5628                 0.6959                 0.3416

                     22                     23                     24
                      A                      A                      A
 Frequencies --    644.8017               656.0001               688.7160
 Red. masses --      7.3427                 6.0898                 3.9481
 Frc consts  --      1.7987                 1.5440                 1.1034
 IR Inten    --      2.0779                 8.9077                 4.9617

                     25                     26                     27
                      A                      A                      A
 Frequencies --    726.6370               752.1297               757.3566
 Red. masses --      2.7725                 6.4752                 2.2614
 Frc consts  --      0.8625                 2.1582                 0.7642
 IR Inten    --      6.7276                23.6451                39.3502

                     28                     29                     30
                      A                      A                      A
 Frequencies --    789.7825               815.9415               830.8641
 Red. masses --      2.5323                 4.3552                 1.2480
 Frc consts  --      0.9306                 1.7084                 0.5076
 IR Inten    --     21.9140                 5.6655                 0.1207

                     31                     32                     33
                      A                      A                      A
 Frequencies --    859.6607               862.7949               878.2252
 Red. masses --      4.2990                 2.1125                 1.4017
 Frc consts  --      1.8719                 0.9265                 0.6370
 IR Inten    --     26.6856                41.4704                 0.7178

                     34                     35                     36
                      A                      A                      A
 Frequencies --    895.2921               955.7529               980.5232
 Red. masses --      5.7304                 1.3850                 1.2942
 Frc consts  --      2.7062                 0.7454                 0.7331
 IR Inten    --     42.0783                 2.3231                 1.8196

                     37                     38                     39
                      A                      A                      A
 Frequencies --    988.1332               992.4202              1017.3524
 Red. masses --      1.3286                 1.2871                 1.5925
 Frc consts  --      0.7643                 0.7469                 0.9711
 IR Inten    --      0.0743                 0.0064                 2.2352

                     40                     41                     42
                      A                      A                      A
 Frequencies --   1026.7854              1067.8267              1076.1033
 Red. masses --      2.7964                 2.0994                 1.5040
 Frc consts  --      1.7370                 1.4104                 1.0261
 IR Inten    --      0.1665                 5.7190                 2.5839

                     43                     44                     45
                      A                      A                      A
 Frequencies --   1134.3771              1137.4447              1150.7650
 Red. masses --      3.2795                 1.9348                 1.2510
 Frc consts  --      2.4864                 1.4749                 0.9760
 IR Inten    --    108.6276                61.3025                12.5688

                     46                     47                     48
                      A                      A                      A
 Frequencies --   1196.6119              1205.4528              1208.0846
 Red. masses --      1.1992                 1.6457                 1.6185
 Frc consts  --      1.0117                 1.4090                 1.3918
 IR Inten    --      8.5131                 4.8958               134.5451

                     49                     50                     51
                      A                      A                      A
 Frequencies --   1244.1348              1286.3144              1313.8888
 Red. masses --      2.8945                 4.5352                 1.4722
 Frc consts  --      2.6397                 4.4213                 1.4974
 IR Inten    --      5.5675               619.6255                 0.0093

                     52                     53                     54
                      A                      A                      A
 Frequencies --   1332.7067              1346.8816              1372.7974
 Red. masses --      1.3312                 6.7297                10.2290
 Frc consts  --      1.3930                 7.1929                11.3579
 IR Inten    --      1.9647                 1.4620               340.9576

                     55                     56                     57
                      A                      A                      A
 Frequencies --   1378.5417              1443.3476              1464.5793
 Red. masses --     10.4320                 1.2359                 3.3738
 Frc consts  --     11.6804                 1.5170                 4.2638
 IR Inten    --    131.5027                 1.5635                 4.3577

                     58                     59                     60
                      A                      A                      A
 Frequencies --   1483.2805              1504.7499              1518.7146
 Red. masses --      1.8803                 1.0481                 1.4304
 Frc consts  --      2.4374                 1.3983                 1.9438
 IR Inten    --     18.8194                12.9739                 9.2912

                     61                     62                     63
                      A                      A                      A
 Frequencies --   1532.1216              1535.7850              1582.7379
 Red. masses --      1.9765                 2.2391                12.0765
 Frc consts  --      2.7336                 3.1116                17.8242
 IR Inten    --    184.9691                13.4230               195.6437

                     64                     65                     66
                      A                      A                      A
 Frequencies --   1628.9882              1644.3136              1650.9688
 Red. masses --      5.4636                 6.3945                 7.4210
 Frc consts  --      8.5421                10.1865                11.9176
 IR Inten    --     51.1644               124.7486                94.2507

                     67                     68                     69
                      A                      A                      A
 Frequencies --   1660.5390              3044.2274              3098.3891
 Red. masses --      6.2629                 1.0383                 1.0984
 Frc consts  --     10.1748                 5.6692                 6.2124
 IR Inten    --     28.1651                21.0711                13.3752

                     70                     71                     72
                      A                      A                      A
 Frequencies --   3128.4960              3178.8969              3192.1025
 Red. masses --      1.1025                 1.0875                 1.0891
 Frc consts  --      6.3575                 6.4747                 6.5385
 IR Inten    --     18.5138                 5.9082                 8.3581

                     73                     74                     75
                      A                      A                      A
 Frequencies --   3204.1746              3214.6770              3217.3540
 Red. masses --      1.0930                 1.0968                 1.0906
 Frc consts  --      6.6117                 6.6782                 6.6513
 IR Inten    --     22.2135                 8.9598                 2.0492

                     76                     77                     78
                      A                      A                      A
 Frequencies --   3223.7006              3243.6931              3245.4419
 Red. masses --      1.0897                 1.0934                 1.0935
 Frc consts  --      6.6721                 6.7781                 6.7860
 IR Inten    --      1.4446                 1.4191                 1.9910

 - Thermochemistry -
 -------------------
 Temperature   298.150 Kelvin.  Pressure   1.00000 Atm.
 Atom     1 has atomic number  6 and mass  12.00000

 Molecular mass:   229.07389 amu.
 Principal axes and moments of inertia in atomic units:
                           1         2         3
     Eigenvalues --  1424.984708469.098188644.94397
           X            0.99995  -0.00870   0.00446
           Y            0.00812   0.99302   0.11769
           Z           -0.00545  -0.11764   0.99304
 This molecule is an asymmetric top.
 Rotational symmetry number  1.
 Warning -- assumption of classical behavior for rotation
           may cause significant error
 Rotational temperatures (Kelvin)      0.06078     0.01023     0.01002
 Rotational constants (GHZ):           1.26650     0.21310     0.20876
 Zero-point vibrational energy     566397.7 (Joules/Mol)
                                  135.37231 (Kcal/Mol)
 Warning -- explicit consideration of  21 degrees of freedom as
           vibrations may cause significant error
 Vibrational temperatures:     37.25    54.93    88.24   101.45   145.55
          (Kelvin)            176.80   243.43   299.98   379.75   399.80
                              452.57   471.97   586.46   615.19   643.97
                              676.85   721.48   753.05   776.71   810.18
                              890.42   927.73   943.84   990.91  1045.47
                             1082.15  1089.67  1136.32  1173.96  1195.43
                             1236.86  1241.37  1263.57  1288.13  1375.12
                             1410.75  1421.70  1427.87  1463.74  1477.32
                             1536.36  1548.27  1632.12  1636.53  1655.69
                             1721.66  1734.38  1738.16  1790.03  1850.72
                             1890.39  1917.47  1937.86  1975.15  1983.41
                             2076.66  2107.20  2134.11  2165.00  2185.09
                             2204.38  2209.65  2277.21  2343.75  2365.80
                             2375.38  2389.15  4379.96  4457.89  4501.21
                             4573.72  4592.72  4610.09  4625.20  4629.05
                             4638.19  4666.95  4669.47

 Zero-point correction=                           0.215730 (Hartree/Particle)
 Thermal correction to Energy=                    0.229910
 Thermal correction to Enthalpy=                  0.230854
 Thermal correction to Gibbs Free Energy=         0.172678
 Sum of electronic and zero-point Energies=           -782.173590
 Sum of electronic and thermal Energies=              -782.159410
 Sum of electronic and thermal Enthalpies=            -782.158466
 Sum of electronic and thermal Free Energies=         -782.216642

                     E (Thermal)             CV                S
                      KCal/Mol        Cal/Mol-Kelvin    Cal/Mol-Kelvin
 Total                  144.271             54.411            122.442
 Electronic               0.000              0.000              0.000
 Translational            0.889              2.981             42.189
 Rotational               0.889              2.981             33.011
 Vibrational            142.493             48.450             47.241
 Vibration     1          0.593              1.985              6.122
 Vibration     2          0.594              1.982              5.351
 Vibration     3          0.597              1.973              4.414
 Vibration     4          0.598              1.968              4.139
 Vibration     5          0.604              1.948              3.432
 Vibration     6          0.610              1.930              3.055
 Vibration     7          0.625              1.880              2.444
 Vibration     8          0.642              1.828              2.057
 Vibration     9          0.670              1.739              1.636
 Vibration    10          0.679              1.714              1.547
 Vibration    11          0.702              1.646              1.338
 Vibration    12          0.711              1.619              1.270
 Vibration    13          0.772              1.454              0.935
 Vibration    14          0.789              1.410              0.867
 Vibration    15          0.807              1.366              0.803
 Vibration    16          0.827              1.316              0.736
 Vibration    17          0.857              1.247              0.654
 Vibration    18          0.878              1.198              0.602
 Vibration    19          0.895              1.162              0.566
 Vibration    20          0.919              1.111              0.518
 Vibration    21          0.979              0.992              0.418

 Optimization completed.
    -- Stationary point found.
 Normal termination of Gaussian 16 at Sat Sep 16 15:18:25 2023.
