 Gaussian 16, Revision B.01,
 Gaussian 16:  EM64L-G16RevB.01 20-Dec-2017

 ---------------------------------------------------------
 # opt freq b3lyp/6-31+g(d) empiricaldispersion=gd3 volume
 ---------------------------------------------------------

 -------------------
 Title Card Required
 -------------------
 Symbolic Z-matrix:
 Charge =  0 Multiplicity = 1

 SCF Done:  E(RB3LYP) =  -806.613130429     A.U. after   16 cycles
 SCF Done:  E(RB3LYP) =  -806.658851368     A.U. after   14 cycles
 SCF Done:  E(RB3LYP) =  -806.664052309     A.U. after   16 cycles
 SCF Done:  E(RB3LYP) =  -806.684387020     A.U. after   15 cycles
 SCF Done:  E(RB3LYP) =  -806.683210300     A.U. after   17 cycles
 SCF Done:  E(RB3LYP) =  -806.682334586     A.U. after   16 cycles
 SCF Done:  E(RB3LYP) =  -806.677533390     A.U. after   16 cycles
 SCF Done:  E(RB3LYP) =  -806.684547190     A.U. after   13 cycles
 SCF Done:  E(RB3LYP) =  -806.686943168     A.U. after   15 cycles
 SCF Done:  E(RB3LYP) =  -806.687196356     A.U. after   15 cycles
 SCF Done:  E(RB3LYP) =  -806.688264489     A.U. after   16 cycles
 SCF Done:  E(RB3LYP) =  -806.687082814     A.U. after   16 cycles
 SCF Done:  E(RB3LYP) =  -806.688518534     A.U. after   14 cycles
 SCF Done:  E(RB3LYP) =  -806.688555255     A.U. after   14 cycles
 SCF Done:  E(RB3LYP) =  -806.688579059     A.U. after   12 cycles
 SCF Done:  E(RB3LYP) =  -806.688582116     A.U. after   11 cycles
 SCF Done:  E(RB3LYP) =  -806.688582337     A.U. after   10 cycles
 Optimization completed.
    -- Stationary point found.
 Normal termination of Gaussian 16 at Sun Sep 17 16:04:41 2023.

 ---------------------------------------------------------------------
 #N Geom=AllCheck Guess=TCheck SCRF=Check GenChk RB3LYP/6-31+G(d) Freq
 ---------------------------------------------------------------------

 Structure from the checkpoint file:  "molecule_9.chk"
 -------------------
 Title Card Required
 -------------------
 Charge =  0 Multiplicity = 1

                         Standard orientation:
 ---------------------------------------------------------------------
 Center     Atomic      Atomic             Coordinates (Angstroms)
 Number     Number       Type             X           Y           Z
 ---------------------------------------------------------------------
      1          6           0        4.439598    1.417910   -0.000106
      2          6           0        3.054246    1.371313    0.000005
      3          6           0        2.370141    0.133513    0.000164
      4          6           0        3.133693   -1.048236    0.000329
      5          6           0        4.528337   -1.009192    0.000229
      6          6           0        5.188530    0.228492   -0.000012
      7          1           0        4.970469    2.365006   -0.000281
      8          1           0        2.481639    2.294118   -0.000083
      9          1           0        2.625570   -2.008167    0.000513
     10          1           0        5.082602   -1.940731    0.000361
     11          6           0        0.948424    0.085506    0.000351
     12          6           0       -0.269273    0.046510    0.000353
     13          6           0       -1.690116   -0.003537    0.000161
     14          6           0       -2.452468    1.183789    0.000262
     15          6           0       -2.368413   -1.243999   -0.000104
     16          6           0       -3.842781    1.129332    0.000066
     17          1           0       -1.941954    2.142221    0.000503
     18          6           0       -3.755420   -1.288247   -0.000195
     19          1           0       -1.789969   -2.163135   -0.000183
     20          6           0       -4.516230   -0.104731   -0.000151
     21          1           0       -4.400638    2.060680    0.000201
     22          1           0       -4.279340   -2.239027   -0.000294
     23          8           0        6.542275    0.384502   -0.000072
     24          6           0        7.366237   -0.776884   -0.000506
     25          1           0        7.195717   -1.386248    0.896951
     26          1           0        7.194858   -1.386186   -0.897839
     27          1           0        8.393769   -0.409687   -0.000977
     28          6           0       -6.009175   -0.209601   -0.000188
     29          8           0       -6.561055   -1.303593    0.000097
     30          6           0       -6.835224    1.066366   -0.000371
     31          1           0       -6.615103    1.676749    0.884286
     32          1           0       -6.614144    1.677603   -0.884142
     33          1           0       -7.893866    0.799689   -0.000958
 ---------------------------------------------------------------------

 SCF Done:  E(RB3LYP) =  -806.688582337     A.U. after    1 cycles

 The electronic state is 1-A.
 Alpha  occ. eigenvalues --  -19.20264 -19.14590 -10.28429 -10.27066 -10.25716
 Alpha  occ. eigenvalues --  -10.23535 -10.22497 -10.21500 -10.21496 -10.21323
 Alpha  occ. eigenvalues --  -10.21195 -10.21165 -10.20993 -10.20969 -10.20714
 Alpha  occ. eigenvalues --  -10.20513 -10.20503 -10.20058 -10.19527  -1.08564
 Alpha  occ. eigenvalues --   -1.04278  -0.87911  -0.87502  -0.80832  -0.78977
 Alpha  occ. eigenvalues --   -0.76937  -0.76626  -0.75176  -0.73549  -0.71006
 Alpha  occ. eigenvalues --   -0.65423  -0.63135  -0.62315  -0.61701  -0.56291
 Alpha  occ. eigenvalues --   -0.56116  -0.54732  -0.52324  -0.50213  -0.48599
 Alpha  occ. eigenvalues --   -0.48469  -0.47559  -0.46486  -0.45937  -0.44926
 Alpha  occ. eigenvalues --   -0.44282  -0.43838  -0.43480  -0.42312  -0.41128
 Alpha  occ. eigenvalues --   -0.40380  -0.40262  -0.39388  -0.38140  -0.38058
 Alpha  occ. eigenvalues --   -0.36761  -0.36055  -0.35400  -0.34639  -0.31361
 Alpha  occ. eigenvalues --   -0.28133  -0.27326  -0.27138  -0.26648  -0.25772
 Alpha  occ. eigenvalues --   -0.21620
 Alpha virt. eigenvalues --   -0.08076  -0.02948  -0.02549  -0.02378  -0.00473
 Alpha virt. eigenvalues --    0.00072   0.01109   0.01645   0.01819   0.02481
 Alpha virt. eigenvalues --    0.02760   0.03492   0.03670   0.04019   0.04344

 Mulliken charges:
               1
     1  C   -0.193105
     2  C   -0.418909
     3  C    0.321174
     4  C   -0.699130
     5  C    0.346962
     6  C    0.024014
     7  H    0.196006
     8  H    0.196539
     9  H    0.196843
    10  H    0.181640
    11  C   -0.066128
    12  C    0.000514
    13  C    0.076822
    14  C   -0.652176
    15  C   -0.363889
    16  C   -0.864083
    17  H    0.194799
    18  C    0.207866
    19  H    0.196792
    20  C    0.792071
    21  H    0.185055
    22  H    0.222058
    23  O   -0.375108
    24  C   -0.334853
    25  H    0.206231
    26  H    0.206227
    27  H    0.212284
    28  C    0.634801
    29  O   -0.442266
    30  C   -0.885718
    31  H    0.227429
    32  H    0.227400
    33  H    0.241839
 Sum of Mulliken charges =   0.00000

 Dipole moment (field-independent basis, Debye):
    X=              4.4785    Y=              1.2628    Z=             -0.0010  Tot=              4.6532
 Quadrupole moment (field-independent basis, Debye-Ang):
   XX=           -105.6534   YY=           -103.2996   ZZ=           -116.5024
   XY=            -27.6751   XZ=             -0.0023   YZ=              0.0008

  Exact polarizability: 483.591   1.749 189.329   0.001  -0.001 109.288
 Approx polarizability: 640.113  21.325 325.490   0.005  -0.001 164.076

                      1                      2                      3
                      A                      A                      A
 Frequencies --     20.5556                26.3698                27.7605
 Red. masses --      3.4669                 6.3278                 5.6699
 Frc consts  --      0.0009                 0.0026                 0.0026
 IR Inten    --      2.5665                 0.1197                 0.5549

                      4                      5                      6
                      A                      A                      A
 Frequencies --     61.0719                66.8165               104.6847
 Red. masses --      3.6427                 5.1305                 4.3019
 Frc consts  --      0.0080                 0.0135                 0.0278
 IR Inten    --      1.2402                 3.6483                 1.0310

                      7                      8                      9
                      A                      A                      A
 Frequencies --    112.0412               162.7618               181.5577
 Red. masses --      5.6994                 5.5429                 1.0361
 Frc consts  --      0.0422                 0.0865                 0.0201
 IR Inten    --      0.4715                 4.0473                 0.1249

                     10                     11                     12
                      A                      A                      A
 Frequencies --    189.2953               226.2585               237.3789
 Red. masses --      6.4706                 4.3884                 2.1654
 Frc consts  --      0.1366                 0.1324                 0.0719
 IR Inten    --      0.1585                 8.8997                 0.1496

                     13                     14                     15
                      A                      A                      A
 Frequencies --    267.9218               283.5524               360.1372
 Red. masses --      3.7070                 1.6771                 5.6119
 Frc consts  --      0.1568                 0.0794                 0.4288
 IR Inten    --      1.3695                 1.2163                 0.0576

                     16                     17                     18
                      A                      A                      A
 Frequencies --    377.9919               415.4299               422.8763
 Red. masses --      5.2006                 2.9375                 3.0439
 Frc consts  --      0.4378                 0.2987                 0.3207
 IR Inten    --      4.7311                 0.0000                 0.0033

                     19                     20                     21
                      A                      A                      A
 Frequencies --    446.2232               459.9625               465.9585
 Red. masses --      4.8859                 5.7074                 4.8492
 Frc consts  --      0.5732                 0.7114                 0.6203
 IR Inten    --      8.9941                 9.2804                 0.0068

                     22                     23                     24
                      A                      A                      A
 Frequencies --    514.4686               526.4419               541.4526
 Red. masses --      4.7497                 3.1261                 7.4395
 Frc consts  --      0.7407                 0.5105                 1.2850
 IR Inten    --      4.2074                12.2166                 2.0912

                     25                     26                     27
                      A                      A                      A
 Frequencies --    560.7580               568.3724               603.1045
 Red. masses --      3.3270                 5.8196                 2.3067
 Frc consts  --      0.6164                 1.1077                 0.4943
 IR Inten    --      8.3441                 2.3437                14.3585

                     28                     29                     30
                      A                      A                      A
 Frequencies --    625.4954               651.4131               657.0844
 Red. masses --      4.4789                 7.1736                 7.2131
 Frc consts  --      1.0324                 1.7935                 1.8349
 IR Inten    --     53.6253                 0.0620                 4.4694

                     31                     32                     33
                      A                      A                      A
 Frequencies --    722.5457               727.9191               736.7307
 Red. masses --      4.0426                 5.3280                 3.9095
 Frc consts  --      1.2435                 1.6634                 1.2502
 IR Inten    --      0.0661                 1.7630                 0.1502

                     34                     35                     36
                      A                      A                      A
 Frequencies --    805.6469               820.2473               843.6621
 Red. masses --      5.8598                 1.2793                 1.3790
 Frc consts  --      2.2409                 0.5071                 0.5783
 IR Inten    --     10.1996                 6.7214                 9.4426

                     37                     38                     39
                      A                      A                      A
 Frequencies --    847.3066               861.1381               869.3979
 Red. masses --      1.6392                 1.4027                 6.4518
 Frc consts  --      0.6934                 0.6129                 2.8732
 IR Inten    --     66.5609                34.5042                 0.2161

                     40                     41                     42
                      A                      A                      A
 Frequencies --    952.2236               968.1619               971.1851
 Red. masses --      1.3266                 2.2581                 1.3231
 Frc consts  --      0.7087                 1.2471                 0.7353
 IR Inten    --      0.1835                81.2068                 0.0404

                     43                     44                     45
                      A                      A                      A
 Frequencies --    974.2094              1000.4302              1027.9300
 Red. masses --      1.3253                 1.3340                 2.8293
 Frc consts  --      0.7411                 0.7867                 1.7614
 IR Inten    --      0.0001                 0.4446                 0.3220

                     46                     47                     48
                      A                      A                      A
 Frequencies --   1033.5421              1052.9568              1063.3856
 Red. masses --      3.0134                 1.8457                 6.4284
 Frc consts  --      1.8966                 1.2057                 4.2829
 IR Inten    --      0.8724                 0.7157                73.0383

                     49                     50                     51
                      A                      A                      A
 Frequencies --   1096.7507              1148.1592              1155.6333
 Red. masses --      2.4680                 1.3542                 1.3909
 Frc consts  --      1.7491                 1.0518                 1.0944
 IR Inten    --      6.7938                 9.3895                 5.5401

                     52                     53                     54
                      A                      A                      A
 Frequencies --   1164.6383              1180.4036              1212.9767
 Red. masses --      3.2820                 1.2695                 1.2852
 Frc consts  --      2.6229                 1.0422                 1.1141
 IR Inten    --    116.1790                 1.0170                10.0713

                     55                     56                     57
                      A                      A                      A
 Frequencies --   1218.2121              1226.5861              1287.3287
 Red. masses --      1.2745                 1.2013                 3.5173
 Frc consts  --      1.1144                 1.0649                 3.4343
 IR Inten    --     70.1686                81.1333               618.5810

                     58                     59                     60
                      A                      A                      A
 Frequencies --   1294.5585              1330.1329              1333.1354
 Red. masses --      4.1309                 3.2496                 2.5186
 Frc consts  --      4.0788                 3.3874                 2.6373
 IR Inten    --    200.4464                 4.9863                55.0552

                     61                     62                     63
                      A                      A                      A
 Frequencies --   1344.7932              1347.0565              1359.5067
 Red. masses --      1.9956                 1.7175                 4.1121
 Frc consts  --      2.1264                 1.8362                 4.4780
 IR Inten    --     42.8950                17.6633                 9.0450

                     64                     65                     66
                      A                      A                      A
 Frequencies --   1408.0203              1449.4688              1459.0765
 Red. masses --      1.3206                 2.7345                 3.0106
 Frc consts  --      1.5426                 3.3848                 3.7763
 IR Inten    --     46.5355                31.9678                 2.5400

                     67                     68                     69
                      A                      A                      A
 Frequencies --   1493.4750              1495.8847              1503.3305
 Red. masses --      1.1830                 1.0655                 1.0472
 Frc consts  --      1.5546                 1.4047                 1.3945
 IR Inten    --     24.8851                16.9432                11.9808

                     70                     71                     72
                      A                      A                      A
 Frequencies --   1519.2453              1526.0166              1541.6176
 Red. masses --      1.0458                 1.0645                 2.2372
 Frc consts  --      1.4222                 1.4605                 3.1326
 IR Inten    --      8.5527                64.7007                48.0970

                     73                     74                     75
                      A                      A                      A
 Frequencies --   1560.9640              1589.3544              1603.6089
 Red. masses --      2.7146                 5.8334                 6.3246
 Frc consts  --      3.8971                 8.6818                 9.5825
 IR Inten    --    110.0825                33.6792                23.0015

                     76                     77                     78
                      A                      A                      A
 Frequencies --   1645.8042              1661.6637              1746.9093
 Red. masses --      5.2679                 5.6092                10.4102
 Frc consts  --      8.4070                 9.1252                18.7175
 IR Inten    --    502.0698                12.9253               297.8412

                     79                     80                     81
                      A                      A                      A
 Frequencies --   2298.1501              3024.3265              3046.5618
 Red. masses --     11.9966                 1.0342                 1.0383
 Frc consts  --     37.3305                 5.5734                 5.6778
 IR Inten    --    192.3813                81.2660                 3.6838

                     82                     83                     84
                      A                      A                      A
 Frequencies --   3086.7471              3105.3730              3159.6276
 Red. masses --      1.1071                 1.0999                 1.1001
 Frc consts  --      6.2147                 6.2492                 6.4706
 IR Inten    --     37.3776                 8.9720                25.8849

                     85                     86                     87
                      A                      A                      A
 Frequencies --   3161.4685              3197.7398              3199.4589
 Red. masses --      1.1012                 1.0878                 1.0883
 Frc consts  --      6.4845                 6.5535                 6.5637
 IR Inten    --     17.2432                 7.4058                 7.4110

                     88                     89                     90
                      A                      A                      A
 Frequencies --   3200.7108              3201.0500              3214.8436
 Red. masses --      1.0894                 1.0890                 1.0939
 Frc consts  --      6.5755                 6.5747                 6.6614
 IR Inten    --      3.9405                 4.7641                12.4829

                     91                     92                     93
                      A                      A                      A
 Frequencies --   3216.2901              3220.4808              3226.1891
 Red. masses --      1.0950                 1.0939                 1.0925
 Frc consts  --      6.6739                 6.6843                 6.6997
 IR Inten    --      9.0278                 2.0447                13.9350

 - Thermochemistry -
 -------------------
 Temperature   298.150 Kelvin.  Pressure   1.00000 Atm.
 Atom     1 has atomic number  6 and mass  12.00000

 Molecular mass:   250.09938 amu.
 Principal axes and moments of inertia in atomic units:
                           1         2         3
     Eigenvalues --   875.99807********************
           X            0.99995  -0.00960   0.00000
           Y            0.00960   0.99995   0.00000
           Z            0.00000   0.00000   1.00000
 This molecule is an asymmetric top.
 Rotational symmetry number  1.
 Warning -- assumption of classical behavior for rotation
           may cause significant error
 Rotational temperatures (Kelvin)      0.09887     0.00454     0.00435
 Rotational constants (GHZ):           2.06021     0.09470     0.09064
 Zero-point vibrational energy     687297.4 (Joules/Mol)
                                  164.26801 (Kcal/Mol)
 Warning -- explicit consideration of  27 degrees of freedom as
           vibrations may cause significant error
 Vibrational temperatures:     29.57    37.94    39.94    87.87    96.13
          (Kelvin)            150.62   161.20   234.18   261.22   272.35
                              325.54   341.54   385.48   407.97   518.16
                              543.85   597.71   608.42   642.02   661.78
                              670.41   740.21   757.43   779.03   806.81
                              817.76   867.73   899.95   937.24   945.40
                             1039.58  1047.31  1059.99  1159.15  1180.15
                             1213.84  1219.09  1238.99  1250.87  1370.04
                             1392.97  1397.32  1401.67  1439.40  1478.96
                             1487.04  1514.97  1529.97  1577.98  1651.95
                             1662.70  1675.65  1698.34  1745.20  1752.74
                             1764.78  1852.18  1862.58  1913.76  1918.08
                             1934.86  1938.11  1956.03  2025.83  2085.46
                             2099.29  2148.78  2152.24  2162.96  2185.86
                             2195.60  2218.04  2245.88  2286.73  2307.24
                             2367.95  2390.76  2513.41  3306.53  4351.33
                             4383.32  4441.14  4467.94  4546.00  4548.65
                             4600.83  4603.31  4605.11  4605.60  4625.44
                             4627.52  4633.55  4641.77

 Zero-point correction=                           0.261778 (Hartree/Particle)
 Thermal correction to Energy=                    0.278948
 Thermal correction to Enthalpy=                  0.279892
 Thermal correction to Gibbs Free Energy=         0.214071
 Sum of electronic and zero-point Energies=           -806.426805
 Sum of electronic and thermal Energies=              -806.409634
 Sum of electronic and thermal Enthalpies=            -806.408690
 Sum of electronic and thermal Free Energies=         -806.474511

                     E (Thermal)             CV                S
                      KCal/Mol        Cal/Mol-Kelvin    Cal/Mol-Kelvin
 Total                  175.043             64.893            138.532
 Electronic               0.000              0.000              0.000
 Translational            0.889              2.981             42.450
 Rotational               0.889              2.981             34.163
 Vibrational            173.265             58.932             61.918
 Vibration     1          0.593              1.986              6.580
 Vibration     2          0.593              1.985              6.085
 Vibration     3          0.593              1.984              5.983
 Vibration     4          0.597              1.973              4.422
 Vibration     5          0.598              1.970              4.245
 Vibration     6          0.605              1.945              3.365
 Vibration     7          0.607              1.939              3.233
 Vibration     8          0.623              1.888              2.517
 Vibration     9          0.630              1.865              2.312
 Vibration    10          0.633              1.855              2.235
 Vibration    11          0.650              1.801              1.908
 Vibration    12          0.656              1.783              1.822
 Vibration    13          0.673              1.732              1.610
 Vibration    14          0.682              1.704              1.512
 Vibration    15          0.735              1.554              1.122
 Vibration    16          0.748              1.517              1.047
 Vibration    17          0.779              1.437              0.908
 Vibration    18          0.785              1.420              0.882
 Vibration    19          0.805              1.369              0.807
 Vibration    20          0.818              1.339              0.766
 Vibration    21          0.823              1.326              0.749
 Vibration    22          0.870              1.218              0.623
 Vibration    23          0.881              1.191              0.595
 Vibration    24          0.897              1.158              0.562
 Vibration    25          0.916              1.116              0.522
 Vibration    26          0.924              1.100              0.507
 Vibration    27          0.961              1.025              0.444

 Optimization completed.
    -- Stationary point found.
 Normal termination of Gaussian 16 at Sun Sep 17 16:11:32 2023.
