 Gaussian 16, Revision B.01,
 Gaussian 16:  EM64L-G16RevB.01 20-Dec-2017

 ----------------------------------------------------------------------
 # opt=cartesian freq b3lyp/6-31+g(d) nosymm geom=connectivity empirica
 ldispersion=gd3 volume
 ----------------------------------------------------------------------

 -------------------
 Title Card Required
 -------------------
 Symbolic Z-matrix:
 Charge =  0 Multiplicity = 1

 SCF Done:  E(RB3LYP) =  -730.191602718     A.U. after   15 cycles
 SCF Done:  E(RB3LYP) =  -730.191601473     A.U. after   12 cycles
 SCF Done:  E(RB3LYP) =  -730.191602792     A.U. after    9 cycles
 SCF Done:  E(RB3LYP) =  -730.191602859     A.U. after   11 cycles
 SCF Done:  E(RB3LYP) =  -730.191602812     A.U. after   11 cycles
 SCF Done:  E(RB3LYP) =  -730.191602749     A.U. after   11 cycles
 SCF Done:  E(RB3LYP) =  -730.191602868     A.U. after    6 cycles
 Optimization completed.
    -- Stationary point found.
 Normal termination of Gaussian 16 at Mon Sep 18 08:24:31 2023.

 ---------------------------------------------------------------------
 #N Geom=AllCheck Guess=TCheck SCRF=Check GenChk RB3LYP/6-31+G(d) Freq
 ---------------------------------------------------------------------

 Structure from the checkpoint file:  "molecule_35.chk"
 -------------------
 Title Card Required
 -------------------
 Charge =  0 Multiplicity = 1

                          Input orientation:
 ---------------------------------------------------------------------
 Center     Atomic      Atomic             Coordinates (Angstroms)
 Number     Number       Type             X           Y           Z
 ---------------------------------------------------------------------
      1          6           0       -0.000156   -0.001046   -0.000115
      2          6           0        0.000182   -0.001276    1.222800
      3          6           0        0.000003   -0.000711   -1.360463
      4          6           0       -0.005101   -0.000988    2.642853
      5          6           0        0.001211   -0.000407   -2.583047
      6          6           0        1.196156   -0.089806    3.371177
      7          6           0       -1.219572    0.088852    3.363534
      8          6           0        0.000349    0.000201   -4.005106
      9          6           0        1.197905   -0.089785    4.766263
     10          1           0        2.137850   -0.159458    2.834644
     11          6           0       -1.224306    0.089312    4.749534
     12          1           0       -2.156126    0.158063    2.818264
     13          6           0       -1.212276    0.098694   -4.721175
     14          6           0        1.211857   -0.097615   -4.723085
     15          6           0       -0.016413    0.000104    5.462663
     16          1           0        2.142910   -0.159534    5.292704
     17          1           0       -2.152699    0.158003    5.308310
     18          6           0       -1.207737    0.098907   -6.114901
     19          1           0       -2.146680    0.174139   -4.172807
     20          6           0        1.205190   -0.096492   -6.116810
     21          1           0        2.147107   -0.173577   -4.176214
     22          8           0       -0.131787    0.008917    6.820761
     23          6           0       -0.001794    0.001546   -6.817960
     24          1           0       -2.148148    0.175282   -6.654645
     25          1           0        2.144789   -0.172348   -6.658060
     26          6           0        1.050473   -0.077913    7.609389
     27          1           0       -0.002598    0.002070   -7.904778
     28          1           0        1.718817    0.772591    7.419950
     29          1           0        0.715288   -0.052863    8.647541
     30          1           0        1.586984   -1.017289    7.420592
 ---------------------------------------------------------------------

 SCF Done:  E(RB3LYP) =  -730.191602868     A.U. after    1 cycles

 Alpha  occ. eigenvalues --  -19.20043 -10.26815 -10.25522 -10.22731 -10.22306
 Alpha  occ. eigenvalues --  -10.21259 -10.21070 -10.21025 -10.20863 -10.20726
 Alpha  occ. eigenvalues --  -10.20699 -10.20696 -10.20642 -10.20589 -10.20552
 Alpha  occ. eigenvalues --  -10.20476 -10.20457 -10.20248  -1.08337  -0.87320
 Alpha  occ. eigenvalues --   -0.87123  -0.80733  -0.79154  -0.76925  -0.76379
 Alpha  occ. eigenvalues --   -0.75865  -0.73275  -0.70822  -0.64621  -0.62894
 Alpha  occ. eigenvalues --   -0.61923  -0.61748  -0.58806  -0.55336  -0.54171
 Alpha  occ. eigenvalues --   -0.52273  -0.49979  -0.48992  -0.48391  -0.46503
 Alpha  occ. eigenvalues --   -0.46225  -0.44481  -0.44039  -0.43361  -0.43263
 Alpha  occ. eigenvalues --   -0.40474  -0.39935  -0.38946  -0.37943  -0.36947
 Alpha  occ. eigenvalues --   -0.36152  -0.36136  -0.34536  -0.33781  -0.33561
 Alpha  occ. eigenvalues --   -0.29472  -0.26996  -0.26516  -0.25272  -0.24712
 Alpha  occ. eigenvalues --   -0.20724
 Alpha virt. eigenvalues --   -0.06541  -0.02370  -0.02006  -0.01929  -0.01666
 Alpha virt. eigenvalues --   -0.00177   0.00438   0.01543   0.01994   0.02500
 Alpha virt. eigenvalues --    0.02940   0.03374   0.03742   0.04298   0.04775

 Mulliken charges:
               1
     1  C    1.085860
     2  C   -1.129947
     3  C    1.130381
     4  C   -0.007052
     5  C   -1.274066
     6  C   -0.763514
     7  C   -0.439640
     8  C    0.206050
     9  C    0.701456
    10  H    0.197634
    11  C   -0.058163
    12  H    0.198880
    13  C   -0.403639
    14  C   -0.452556
    15  C   -0.078989
    16  H    0.180565
    17  H    0.195629
    18  C    0.019675
    19  H    0.195579
    20  C    0.030222
    21  H    0.195816
    22  O   -0.373368
    23  C   -0.198354
    24  H    0.183240
    25  H    0.183095
    26  C   -0.330290
    27  H    0.181640
    28  H    0.206051
    29  H    0.211763
    30  H    0.206043
 Sum of Mulliken charges =   0.00000

 Dipole moment (field-independent basis, Debye):
    X=              1.3152    Y=             -0.0957    Z=              1.4779  Tot=              1.9807
 Quadrupole moment (field-independent basis, Debye-Ang):
   XX=            -93.8369   YY=           -111.7885   ZZ=            -66.0713
   XY=             -1.3972   XZ=             10.5168   YZ=             -0.7806

  Exact polarizability: 176.033  -5.610 104.046   8.873  -0.733 541.604
 Approx polarizability: 291.183 -10.872 151.687   3.701  -0.392 758.299

                      1                      2                      3
                      A                      A                      A
 Frequencies --     11.2641                24.0602                26.2267
 Red. masses --      3.5314                 5.6100                 6.1497
 Frc consts  --      0.0003                 0.0019                 0.0025
 IR Inten    --      0.3267                 0.8576                 0.9278

                      4                      5                      6
                      A                      A                      A
 Frequencies --     67.6657                73.6111               105.0284
 Red. masses --      4.5263                 5.5239                 4.2136
 Frc consts  --      0.0122                 0.0176                 0.0274
 IR Inten    --      0.0594                 0.0804                 3.4298

                      7                      8                      9
                      A                      A                      A
 Frequencies --    165.4257               198.0655               212.6106
 Red. masses --      5.1719                 5.5422                 7.5089
 Frc consts  --      0.0834                 0.1281                 0.2000
 IR Inten    --      1.3686                 0.0615                 0.3860

                     10                     11                     12
                      A                      A                      A
 Frequencies --    242.4490               273.1773               286.6306
 Red. masses --      1.9382                 3.9167                 1.8421
 Frc consts  --      0.0671                 0.1722                 0.0892
 IR Inten    --      0.2159                 2.9524                 1.0610

                     13                     14                     15
                      A                      A                      A
 Frequencies --    374.3051               410.9764               418.7682
 Red. masses --      5.5438                 2.9202                 6.9391
 Frc consts  --      0.4576                 0.2906                 0.7170
 IR Inten    --      1.2782                 0.0002                 9.4432

                     16                     17                     18
                      A                      A                      A
 Frequencies --    421.7375               461.6358               474.3464
 Red. masses --      3.0496                 7.3050                 4.5158
 Frc consts  --      0.3196                 0.9172                 0.5987
 IR Inten    --      0.0142                11.4306                 8.2102

                     19                     20                     21
                      A                      A                      A
 Frequencies --    502.5231               530.9434               535.7005
 Red. masses --      6.0780                 5.5639                 2.6548
 Frc consts  --      0.9043                 0.9241                 0.4489
 IR Inten    --     16.0860                 7.4108                 3.9483

                     22                     23                     24
                      A                      A                      A
 Frequencies --    604.0777               627.6609               629.2249
 Red. masses --      4.3414                 6.5536                 6.7590
 Frc consts  --      0.9334                 1.5212                 1.5767
 IR Inten    --     14.8312                 3.5820                 2.0156

                     25                     26                     27
                      A                      A                      A
 Frequencies --    647.1417               668.5991               699.6886
 Red. masses --      7.8267                 9.1444                 1.9211
 Frc consts  --      1.9312                 2.4084                 0.5541
 IR Inten    --      0.9458                 0.5767                38.0883

                     28                     29                     30
                      A                      A                      A
 Frequencies --    724.1131               746.9454               764.7068
 Red. masses --      3.9627                 5.9018                 1.8657
 Frc consts  --      1.2242                 1.9401                 0.6428
 IR Inten    --      0.7232                19.3834                38.1948

                     31                     32                     33
                      A                      A                      A
 Frequencies --    819.6317               824.9881               846.1320
 Red. masses --      1.2813                 6.0201                 1.7589
 Frc consts  --      0.5072                 2.4140                 0.7419
 IR Inten    --      8.1041                 1.7568                61.9532

                     34                     35                     36
                      A                      A                      A
 Frequencies --    852.4480               861.6982               931.6566
 Red. masses --      1.2478                 5.7917                 1.4780
 Frc consts  --      0.5342                 2.5338                 0.7559
 IR Inten    --      0.0007                 0.9409                 3.3376

                     37                     38                     39
                      A                      A                      A
 Frequencies --    952.8471               971.6757               979.3130
 Red. masses --      1.3333                 1.3241                 1.3635
 Frc consts  --      0.7132                 0.7366                 0.7705
 IR Inten    --      0.1240                 0.0423                 0.0000

                     40                     41                     42
                      A                      A                      A
 Frequencies --    998.4104              1001.3924              1013.8871
 Red. masses --      7.7212                 1.2826                 6.4939
 Frc consts  --      4.5347                 0.7578                 3.9331
 IR Inten    --      1.7519                 0.0278                 0.2992

                     43                     44                     45
                      A                      A                      A
 Frequencies --   1029.6742              1054.3752              1065.6467
 Red. masses --      2.7703                 2.1764                 5.1825
 Frc consts  --      1.7305                 1.4255                 3.4675
 IR Inten    --      0.8134                12.4950                77.3876

                     46                     47                     48
                      A                      A                      A
 Frequencies --   1109.3325              1148.1037              1180.4643
 Red. masses --      1.6283                 1.3576                 1.2696
 Frc consts  --      1.1806                 1.0544                 1.0424
 IR Inten    --      4.8806                10.1139                 1.0245

                     49                     50                     51
                      A                      A                      A
 Frequencies --   1200.1004              1211.4657              1214.8024
 Red. masses --      1.1081                 1.2354                 1.3571
 Frc consts  --      0.9403                 1.0683                 1.1800
 IR Inten    --      0.0046                60.8638                24.7218

                     52                     53                     54
                      A                      A                      A
 Frequencies --   1216.8649              1236.8581              1293.6693
 Red. masses --      1.1931                 3.2433                 4.3624
 Frc consts  --      1.0409                 2.9233                 4.3015
 IR Inten    --     28.0713                23.0201               409.9170

                     55                     56                     57
                      A                      A                      A
 Frequencies --   1324.4753              1332.7518              1344.8433
 Red. masses --      3.3470                 2.4149                 1.9992
 Frc consts  --      3.4594                 2.5272                 2.1304
 IR Inten    --      0.0527                68.4098                54.6109

                     58                     59                     60
                      A                      A                      A
 Frequencies --   1364.1768              1390.3991              1458.5682
 Red. masses --      1.6824                 4.4231                 3.0203
 Frc consts  --      1.8447                 5.0379                 3.7858
 IR Inten    --      0.3461                27.1185                 5.7522

                     61                     62                     63
                      A                      A                      A
 Frequencies --   1480.6641              1493.4310              1519.0916
 Red. masses --      2.1920                 1.1848                 1.0458
 Frc consts  --      2.8314                 1.5570                 1.4219
 IR Inten    --      4.0053                26.9876                 8.4800

                     64                     65                     66
                      A                      A                      A
 Frequencies --   1525.9678              1533.5905              1555.2243
 Red. masses --      1.0690                 2.1940                 2.6032
 Frc consts  --      1.4666                 3.0403                 3.7098
 IR Inten    --     74.6427                57.7345               123.7902

                     67                     68                     69
                      A                      A                      A
 Frequencies --   1602.0378              1614.6609              1646.7756
 Red. masses --      6.2971                 4.8967                 5.2852
 Frc consts  --      9.5222                 7.5217                 8.4446
 IR Inten    --     19.9839                 1.2118                29.7865

                     70                     71                     72
                      A                      A                      A
 Frequencies --   1655.6226              2234.6347              2309.8127
 Red. masses --      5.4797                11.9984                11.9953
 Frc consts  --      8.8497                35.3011                37.7064
 IR Inten    --    191.3658                 7.1716                55.7938

                     73                     74                     75
                      A                      A                      A
 Frequencies --   3023.8161              3086.0341              3159.1125
 Red. masses --      1.0342                 1.1070                 1.1000
 Frc consts  --      5.5716                 6.2117                 6.4682
 IR Inten    --     85.3911                37.7965                26.8753

                     76                     77                     78
                      A                      A                      A
 Frequencies --   3179.7357              3188.3513              3200.0223
 Red. masses --      1.0856                 1.0887                 1.0883
 Frc consts  --      6.4671                 6.5208                 6.5659
 IR Inten    --      3.1916                 6.7259                 9.3530

                     79                     80                     81
                      A                      A                      A
 Frequencies --   3200.3666              3201.3273              3207.9991
 Red. masses --      1.0922                 1.0893                 1.0941
 Frc consts  --      6.5907                 6.5775                 6.6342
 IR Inten    --     21.9772                 3.6082                22.4977

                     82                     83                     84
                      A                      A                      A
 Frequencies --   3212.2216              3216.3966              3225.5038
 Red. masses --      1.0973                 1.0951                 1.0926
 Frc consts  --      6.6710                 6.6751                 6.6977
 IR Inten    --     16.9439                 8.5147                15.1114

 - Thermochemistry -
 -------------------
 Temperature   298.150 Kelvin.  Pressure   1.00000 Atm.
 Atom     1 has atomic number  6 and mass  12.00000

 Molecular mass:   232.08882 amu.
 Principal axes and moments of inertia in atomic units:
                           1         2         3
     Eigenvalues --   703.54548********************
           X            0.02003   0.99684   0.07685
           Y           -0.00164  -0.07684   0.99704
           Z            0.99980  -0.02009   0.00010
 This molecule is an asymmetric top.
 Rotational symmetry number  1.
 Warning -- assumption of classical behavior for rotation
           may cause significant error
 Rotational temperatures (Kelvin)      0.12311     0.00447     0.00432
 Rotational constants (GHZ):           2.56521     0.09321     0.08999
 Zero-point vibrational energy     618662.9 (Joules/Mol)
                                  147.86398 (Kcal/Mol)
 Warning -- explicit consideration of  22 degrees of freedom as
           vibrations may cause significant error
 Vibrational temperatures:     16.21    34.62    37.73    97.36   105.91
          (Kelvin)            151.11   238.01   284.97   305.90   348.83
                              393.04   412.40   538.54   591.30   602.51
                              606.79   664.19   682.48   723.02   763.91
                              770.75   869.13   903.06   905.31   931.09
                              961.97  1006.70  1041.84  1074.69  1100.24
                             1179.27  1186.97  1217.40  1226.48  1239.79
                             1340.45  1370.93  1398.02  1409.01  1436.49
                             1440.78  1458.76  1481.47  1517.01  1533.23
                             1596.08  1651.87  1698.42  1726.68  1743.03
                             1747.83  1750.80  1779.56  1861.30  1905.62
                             1917.53  1934.93  1962.75  2000.47  2098.55
                             2130.35  2148.71  2185.63  2195.53  2206.49
                             2237.62  2304.98  2323.14  2369.34  2382.07
                             3215.14  3323.31  4350.60  4440.11  4545.26
                             4574.93  4587.33  4604.12  4604.61  4606.00
                             4615.60  4621.67  4627.68  4640.78

 Zero-point correction=                           0.235636 (Hartree/Particle)
 Thermal correction to Energy=                    0.250984
 Thermal correction to Enthalpy=                  0.251928
 Thermal correction to Gibbs Free Energy=         0.189200
 Sum of electronic and zero-point Energies=           -729.955967
 Sum of electronic and thermal Energies=              -729.940619
 Sum of electronic and thermal Enthalpies=            -729.939675
 Sum of electronic and thermal Free Energies=         -730.002403

                     E (Thermal)             CV                S
                      KCal/Mol        Cal/Mol-Kelvin    Cal/Mol-Kelvin
 Total                  157.495             58.381            132.023
 Electronic               0.000              0.000              0.000
 Translational            0.889              2.981             42.228
 Rotational               0.889              2.981             33.968
 Vibrational            155.717             52.419             55.827
 Vibration     1          0.593              1.987              7.775
 Vibration     2          0.593              1.985              6.267
 Vibration     3          0.593              1.985              6.096
 Vibration     4          0.598              1.970              4.220
 Vibration     5          0.599              1.966              4.054
 Vibration     6          0.605              1.945              3.359
 Vibration     7          0.624              1.885              2.487
 Vibration     8          0.637              1.843              2.151
 Vibration     9          0.644              1.822              2.021
 Vibration    10          0.659              1.775              1.785
 Vibration    11          0.676              1.723              1.576
 Vibration    12          0.684              1.699              1.494
 Vibration    13          0.745              1.525              1.062
 Vibration    14          0.775              1.446              0.923
 Vibration    15          0.782              1.429              0.896
 Vibration    16          0.784              1.423              0.886
 Vibration    17          0.819              1.335              0.761
 Vibration    18          0.831              1.307              0.725
 Vibration    19          0.858              1.244              0.652
 Vibration    20          0.886              1.182              0.585
 Vibration    21          0.891              1.171              0.575
 Vibration    22          0.963              1.023              0.443

 Optimization completed.
    -- Stationary point found.
 Normal termination of Gaussian 16 at Mon Sep 18 08:29:43 2023.
