 Gaussian 16, Revision B.01,
 Gaussian 16:  EM64L-G16RevB.01 20-Dec-2017

 ----------------------------------------------------------------------
 # opt freq b3lyp/6-31+g(d) geom=connectivity empiricaldispersion=gd3 v
 olume
 ----------------------------------------------------------------------

 -------------
 ML molecule80
 -------------
 Symbolic Z-matrix:
 Charge =  0 Multiplicity = 1

 SCF Done:  E(RB3LYP) =  -835.197347465     A.U. after   17 cycles
 SCF Done:  E(RB3LYP) =  -835.230493573     A.U. after   17 cycles
 SCF Done:  E(RB3LYP) =  -835.259551240     A.U. after   18 cycles
 SCF Done:  E(RB3LYP) =  -835.280484099     A.U. after   17 cycles
 SCF Done:  E(RB3LYP) =  -835.276128588     A.U. after   18 cycles
 SCF Done:  E(RB3LYP) =  -835.286245904     A.U. after   17 cycles
 SCF Done:  E(RB3LYP) =  -835.290443214     A.U. after   17 cycles
 SCF Done:  E(RB3LYP) =  -835.297666694     A.U. after   17 cycles
 SCF Done:  E(RB3LYP) =  -835.299277554     A.U. after   17 cycles
 SCF Done:  E(RB3LYP) =  -835.299700688     A.U. after   17 cycles
 SCF Done:  E(RB3LYP) =  -835.309715894     A.U. after   15 cycles
 SCF Done:  E(RB3LYP) =  -835.311304760     A.U. after   16 cycles
 SCF Done:  E(RB3LYP) =  -835.311622730     A.U. after   15 cycles
 SCF Done:  E(RB3LYP) =  -835.311721403     A.U. after   14 cycles
 SCF Done:  E(RB3LYP) =  -835.311733185     A.U. after   14 cycles
 SCF Done:  E(RB3LYP) =  -835.311735565     A.U. after   12 cycles
 SCF Done:  E(RB3LYP) =  -835.311736076     A.U. after   12 cycles
 SCF Done:  E(RB3LYP) =  -835.311736310     A.U. after   11 cycles
 SCF Done:  E(RB3LYP) =  -835.311736355     A.U. after   10 cycles
 Optimization completed.
    -- Stationary point found.
 Normal termination of Gaussian 16 at Fri Sep 15 13:52:46 2023.

 ---------------------------------------------------------------------
 #N Geom=AllCheck Guess=TCheck SCRF=Check GenChk RB3LYP/6-31+G(d) Freq
 ---------------------------------------------------------------------

 Structure from the checkpoint file:  "molecule_80.chk"
 -------------
 ML molecule80
 -------------
 Charge =  0 Multiplicity = 1

                         Standard orientation:
 ---------------------------------------------------------------------
 Center     Atomic      Atomic             Coordinates (Angstroms)
 Number     Number       Type             X           Y           Z
 ---------------------------------------------------------------------
      1          6           0       -3.291549   -0.176622    0.043850
      2          6           0       -2.236001   -0.886427    0.619697
      3          6           0       -0.961868   -0.326773    0.625170
      4          6           0       -0.763054    0.934864    0.048160
      5          6           0       -1.828404    1.643059   -0.520457
      6          6           0       -3.102267    1.086301   -0.523026
      7          1           0       -2.419755   -1.858317    1.062153
      8          1           0       -1.640664    2.620506   -0.952396
      9          1           0       -3.942896    1.611638   -0.960335
     10          8           0        0.450122    1.581014    0.067843
     11          6           0        1.637236    0.876750    0.024365
     12          6           0        1.839818   -0.180436   -0.869751
     13          6           0        2.665681    1.326199    0.855368
     14          6           0        3.083611   -0.802586   -0.918130
     15          6           0        3.911000    0.706700    0.801713
     16          1           0        2.476515    2.154618    1.530274
     17          6           0        4.127325   -0.365312   -0.082353
     18          1           0        3.254357   -1.622546   -1.608650
     19          1           0        4.716945    1.045971    1.444722
     20          1           0       -0.132745   -0.859222    1.078119
     21          1           0        1.034104   -0.505999   -1.519529
     22          7           0       -4.634535   -0.771705    0.036818
     23          8           0       -5.550578   -0.117675   -0.466760
     24          8           0       -4.770153   -1.891784    0.534679
     25          6           0        5.407577   -1.008639   -0.134768
     26          7           0        6.446590   -1.531376   -0.176743
 ---------------------------------------------------------------------

 SCF Done:  E(RB3LYP) =  -835.311736355     A.U. after    2 cycles

 The electronic state is 1-A.
 Alpha  occ. eigenvalues --  -19.24285 -19.20311 -19.20307 -14.59127 -14.35825
 Alpha  occ. eigenvalues --  -10.30707 -10.30368 -10.27415 -10.26417 -10.24994
 Alpha  occ. eigenvalues --  -10.24865 -10.24785 -10.24705 -10.24603 -10.24159
 Alpha  occ. eigenvalues --  -10.24136 -10.23885 -10.23841  -1.24279  -1.13204
 Alpha  occ. eigenvalues --   -1.07024  -0.92965  -0.91710  -0.90246  -0.83806
 Alpha  occ. eigenvalues --   -0.80684  -0.80122  -0.79932  -0.73282  -0.68141
 Alpha  occ. eigenvalues --   -0.66863  -0.66052  -0.62167  -0.59595  -0.59034
 Alpha  occ. eigenvalues --   -0.57275  -0.54907  -0.54136  -0.52880  -0.51300
 Alpha  occ. eigenvalues --   -0.49481  -0.49320  -0.47734  -0.47504  -0.46954
 Alpha  occ. eigenvalues --   -0.45163  -0.44416  -0.43791  -0.42124  -0.40896
 Alpha  occ. eigenvalues --   -0.39382  -0.38389  -0.37913  -0.35820  -0.35159
 Alpha  occ. eigenvalues --   -0.32990  -0.32881  -0.31065  -0.30689  -0.30149
 Alpha  occ. eigenvalues --   -0.29616  -0.26799
 Alpha virt. eigenvalues --   -0.11186  -0.07514  -0.06370  -0.04959  -0.02286
 Alpha virt. eigenvalues --   -0.01814  -0.00146   0.00488   0.00722   0.01015
 Alpha virt. eigenvalues --    0.01566   0.01978   0.03008   0.03203   0.03949

 Mulliken charges:
               1
     1  C   -0.102916
     2  C   -0.141075
     3  C    0.196964
     4  C    0.078060
     5  C   -0.476073
     6  C    0.013561
     7  H    0.236158
     8  H    0.209773
     9  H    0.235943
    10  O   -0.322566
    11  C   -0.111021
    12  C    0.369912
    13  C   -0.048565
    14  C   -0.295957
    15  C   -0.291728
    16  H    0.208094
    17  C    0.485692
    18  H    0.213967
    19  H    0.214574
    20  H    0.212182
    21  H    0.209106
    22  N   -0.320773
    23  O   -0.033932
    24  O   -0.032324
    25  C   -0.183774
    26  N   -0.523283
 Sum of Mulliken charges =   0.00000

 Dipole moment (field-independent basis, Debye):
    X=              0.7282    Y=              3.1387    Z=              0.1452  Tot=              3.2253
 Quadrupole moment (field-independent basis, Debye-Ang):
   XX=           -168.0948   YY=           -103.9339   ZZ=            -99.1208
   XY=              3.3714   XZ=              4.3719   YZ=              1.9586

  Exact polarizability: 297.095 -11.902 154.558  12.592  -1.324 113.344
 Approx polarizability: 402.540 -28.322 282.512  30.297  -9.628 190.216

                      1                      2                      3
                      A                      A                      A
 Frequencies --     19.8485                33.8032                47.8702
 Red. masses --      6.0300                 7.3865                 7.8370
 Frc consts  --      0.0014                 0.0050                 0.0106
 IR Inten    --      2.3357                 1.1108                 1.1074

                      4                      5                      6
                      A                      A                      A
 Frequencies --     69.1007               104.3699               119.7030
 Red. masses --      5.2671                 9.0990                 8.0537
 Frc consts  --      0.0148                 0.0584                 0.0680
 IR Inten    --      0.5957                 2.3050                 0.5086

                      7                      8                      9
                      A                      A                      A
 Frequencies --    157.6859               209.1867               251.4502
 Red. masses --      8.4497                 9.5604                 7.8395
 Frc consts  --      0.1238                 0.2465                 0.2920
 IR Inten    --      9.5906                 3.4788                 1.7677

                     10                     11                     12
                      A                      A                      A
 Frequencies --    290.9038               300.5898               377.8514
 Red. masses --      7.1106                 6.4003                 7.8890
 Frc consts  --      0.3545                 0.3407                 0.6636
 IR Inten    --      3.0793                 0.2891                 5.7734

                     13                     14                     15
                      A                      A                      A
 Frequencies --    417.2572               419.3546               427.9715
 Red. masses --      6.8242                 3.3376                 3.0850
 Frc consts  --      0.7000                 0.3458                 0.3329
 IR Inten    --      0.8979                 1.6840                 0.5780

                     16                     17                     18
                      A                      A                      A
 Frequencies --    455.0405               492.1580               521.4794
 Red. masses --      5.5176                 3.8054                 5.6313
 Frc consts  --      0.6731                 0.5431                 0.9023
 IR Inten    --      3.5758                13.4909                 5.0813

                     19                     20                     21
                      A                      A                      A
 Frequencies --    539.6390               556.1104               565.0639
 Red. masses --      6.4674                 6.4849                 3.7295
 Frc consts  --      1.1096                 1.1816                 0.7016
 IR Inten    --      1.5099                 3.5813                25.5294

                     22                     23                     24
                      A                      A                      A
 Frequencies --    629.4408               644.4663               669.7157
 Red. masses --      6.1098                 7.0038                 6.6651
 Frc consts  --      1.4262                 1.7139                 1.7613
 IR Inten    --      1.1221                 2.6008                 2.7799

                     25                     26                     27
                      A                      A                      A
 Frequencies --    693.2556               713.4690               737.2851
 Red. masses --      4.2413                 5.4264                 4.5198
 Frc consts  --      1.2010                 1.6275                 1.4476
 IR Inten    --     17.8618                 1.2185                 9.0759

                     28                     29                     30
                      A                      A                      A
 Frequencies --    756.9658               808.3417               834.4612
 Red. masses --      6.4175                 5.5260                 1.2589
 Frc consts  --      2.1666                 2.1274                 0.5165
 IR Inten    --     16.4930                 5.2044                 0.4470

                     31                     32                     33
                      A                      A                      A
 Frequencies --    840.2004               858.6943               859.5073
 Red. masses --      1.2472                 6.1856                 1.7305
 Frc consts  --      0.5188                 2.6873                 0.7532
 IR Inten    --      0.7207                14.8488                64.8151

                     34                     35                     36
                      A                      A                      A
 Frequencies --    877.4958               896.9604               971.7630
 Red. masses --      2.0169                 6.3726                 1.3114
 Frc consts  --      0.9150                 3.0207                 0.7296
 IR Inten    --     34.4454                67.3737                 0.2077

                     37                     38                     39
                      A                      A                      A
 Frequencies --    981.0295               983.5973               990.7842
 Red. masses --      1.3445                 1.3037                 1.3362
 Frc consts  --      0.7624                 0.7431                 0.7728
 IR Inten    --      0.4319                 1.0424                 0.4123

                     40                     41                     42
                      A                      A                      A
 Frequencies --   1030.4656              1035.4870              1132.4161
 Red. masses --      2.8060                 2.7177                 3.4073
 Frc consts  --      1.7555                 1.7169                 2.5744
 IR Inten    --      1.8643                 8.2098                96.1244

                     43                     44                     45
                      A                      A                      A
 Frequencies --   1145.4106              1149.3296              1201.1868
 Red. masses --      1.3289                 1.2612                 1.5049
 Frc consts  --      1.0272                 0.9816                 1.2793
 IR Inten    --      5.8213                12.1343                10.5990

                     46                     47                     48
                      A                      A                      A
 Frequencies --   1207.9984              1224.6375              1236.0915
 Red. masses --      1.2319                 3.3691                 2.5465
 Frc consts  --      1.0591                 2.9770                 2.2924
 IR Inten    --    114.5934                 2.8172                 4.5413

                     49                     50                     51
                      A                      A                      A
 Frequencies --   1288.6617              1326.9488              1336.1711
 Red. masses --      5.2846                 1.8824                 2.0652
 Frc consts  --      5.1706                 1.9529                 2.1724
 IR Inten    --    933.4056                 3.8779                 9.0140

                     52                     53                     54
                      A                      A                      A
 Frequencies --   1342.2556              1373.1967              1378.8950
 Red. masses --      1.6564                 8.5336                12.3680
 Frc consts  --      1.7583                 9.4809                13.8551
 IR Inten    --      2.1594                74.6495               337.6304

                     55                     56                     57
                      A                      A                      A
 Frequencies --   1452.2837              1462.2360              1533.1881
 Red. masses --      2.9731                 3.2578                 2.3235
 Frc consts  --      3.6945                 4.1041                 3.2180
 IR Inten    --      3.9119                 2.6069               216.3993

                     58                     59                     60
                      A                      A                      A
 Frequencies --   1545.3985              1590.0360              1617.7523
 Red. masses --      2.4302                11.7826                 6.8960
 Frc consts  --      3.4195                17.5511                10.6334
 IR Inten    --     95.0036               181.0870                11.8746

                     61                     62                     63
                      A                      A                      A
 Frequencies --   1640.1820              1653.5540              1662.0326
 Red. masses --      5.6262                 7.4393                 6.1412
 Frc consts  --      8.9177                11.9845                 9.9949
 IR Inten    --    250.0701               110.9807                 3.4002

                     64                     65                     66
                      A                      A                      A
 Frequencies --   2336.5581              3209.5097              3211.9601
 Red. masses --     12.6790                 1.0891                 1.0893
 Frc consts  --     40.7838                 6.6099                 6.6212
 IR Inten    --     58.3940                 5.4583                 1.1530

                     67                     68                     69
                      A                      A                      A
 Frequencies --   3220.6634              3222.1258              3223.9570
 Red. masses --      1.0908                 1.0908                 1.0949
 Frc consts  --      6.6664                 6.6724                 6.7049
 IR Inten    --      2.3301                 2.6713                 1.1185

                     70                     71                     72
                      A                      A                      A
 Frequencies --   3226.2478              3245.0621              3246.9290
 Red. masses --      1.0958                 1.0934                 1.0936
 Frc consts  --      6.7200                 6.7841                 6.7929
 IR Inten    --      1.0327                 2.5467                 2.7198

 - Thermochemistry -
 -------------------
 Temperature   298.150 Kelvin.  Pressure   1.00000 Atm.
 Atom     1 has atomic number  6 and mass  12.00000

 Molecular mass:   240.05349 amu.
 Principal axes and moments of inertia in atomic units:
                           1         2         3
     Eigenvalues --  1290.69923********************
           X            1.00000  -0.00052   0.00205
           Y            0.00050   0.99998   0.00575
           Z           -0.00206  -0.00575   0.99998
 This molecule is an asymmetric top.
 Rotational symmetry number  1.
 Warning -- assumption of classical behavior for rotation
           may cause significant error
 Rotational temperatures (Kelvin)      0.06711     0.00745     0.00699
 Rotational constants (GHZ):           1.39827     0.15521     0.14566
 Zero-point vibrational energy     489468.2 (Joules/Mol)
                                  116.98572 (Kcal/Mol)
 Warning -- explicit consideration of  21 degrees of freedom as
           vibrations may cause significant error
 Vibrational temperatures:     28.56    48.64    68.87    99.42   150.17
          (Kelvin)            172.23   226.87   300.97   361.78   418.55
                              432.48   543.64   600.34   603.36   615.76
                              654.70   708.11   750.29   776.42   800.12
                              813.00   905.62   927.24   963.57   997.44
                             1026.52  1060.79  1089.10  1163.02  1200.60
                             1208.86  1235.47  1236.64  1262.52  1290.53
                             1398.15  1411.48  1415.18  1425.52  1482.61
                             1489.83  1629.29  1647.99  1653.63  1728.24
                             1738.04  1761.98  1778.46  1854.10  1909.18
                             1922.45  1931.21  1975.72  1983.92  2089.51
                             2103.83  2205.92  2223.48  2287.71  2327.58
                             2359.86  2379.10  2391.29  3361.79  4617.77
                             4621.29  4633.82  4635.92  4638.56  4641.85
                             4668.92  4671.61

 Zero-point correction=                           0.186429 (Hartree/Particle)
 Thermal correction to Energy=                    0.200773
 Thermal correction to Enthalpy=                  0.201717
 Thermal correction to Gibbs Free Energy=         0.142396
 Sum of electronic and zero-point Energies=           -835.125308
 Sum of electronic and thermal Energies=              -835.110964
 Sum of electronic and thermal Enthalpies=            -835.110020
 Sum of electronic and thermal Free Energies=         -835.169340

                     E (Thermal)             CV                S
                      KCal/Mol        Cal/Mol-Kelvin    Cal/Mol-Kelvin
 Total                  125.987             54.612            124.851
 Electronic               0.000              0.000              0.000
 Translational            0.889              2.981             42.328
 Rotational               0.889              2.981             33.586
 Vibrational            124.209             48.650             48.937
 Vibration     1          0.593              1.986              6.649
 Vibration     2          0.594              1.983              5.593
 Vibration     3          0.595              1.978              4.903
 Vibration     4          0.598              1.969              4.179
 Vibration     5          0.605              1.946              3.371
 Vibration     6          0.609              1.933              3.105
 Vibration     7          0.621              1.894              2.577
 Vibration     8          0.642              1.827              2.051
 Vibration     9          0.663              1.760              1.720
 Vibration    10          0.687              1.691              1.469
 Vibration    11          0.693              1.673              1.414
 Vibration    12          0.748              1.517              1.048
 Vibration    13          0.780              1.433              0.901
 Vibration    14          0.782              1.428              0.894
 Vibration    15          0.789              1.409              0.865
 Vibration    16          0.813              1.350              0.781
 Vibration    17          0.848              1.267              0.678
 Vibration    18          0.876              1.202              0.607
 Vibration    19          0.895              1.162              0.566
 Vibration    20          0.912              1.126              0.532
 Vibration    21          0.921              1.107              0.514

 Optimization completed.
    -- Stationary point found.
 Normal termination of Gaussian 16 at Fri Sep 15 13:58:05 2023.
