 Gaussian 16, Revision B.01,
 Gaussian 16:  EM64L-G16RevB.01 20-Dec-2017

 ---------------------------------------------------------
 # opt freq b3lyp/6-31+g(d) empiricaldispersion=gd3 volume
 ---------------------------------------------------------

 -------------------
 Title Card Required
 -------------------
 Symbolic Z-matrix:
 Charge =  0 Multiplicity = 1

 SCF Done:  E(RB3LYP) =  -652.830360494     A.U. after   16 cycles
 SCF Done:  E(RB3LYP) =  -652.830360072     A.U. after   10 cycles
 SCF Done:  E(RB3LYP) =  -652.830360561     A.U. after   10 cycles
 SCF Done:  E(RB3LYP) =  -652.830360626     A.U. after   10 cycles
 SCF Done:  E(RB3LYP) =  -652.830360643     A.U. after    8 cycles
 Optimization completed.
    -- Stationary point found.
 Normal termination of Gaussian 16 at Sun Sep 17 15:08:57 2023.

 ---------------------------------------------------------------------
 #N Geom=AllCheck Guess=TCheck SCRF=Check GenChk RB3LYP/6-31+G(d) Freq
 ---------------------------------------------------------------------

 Structure from the checkpoint file:  "MOLECULE_4.chk"
 -------------------
 Title Card Required
 -------------------
 Charge =  0 Multiplicity = 1

                         Standard orientation:
 ---------------------------------------------------------------------
 Center     Atomic      Atomic             Coordinates (Angstroms)
 Number     Number       Type             X           Y           Z
 ---------------------------------------------------------------------
      1          6           0        4.985305   -1.286716   -0.000061
      2          6           0        3.592002   -1.250567    0.000010
      3          6           0        2.912666   -0.014157   -0.000002
      4          6           0        3.663860    1.179954   -0.000088
      5          6           0        5.056881    1.133791   -0.000161
      6          6           0        5.722147   -0.097190   -0.000142
      7          1           0        5.498059   -2.245004   -0.000056
      8          1           0        3.016846   -2.171854    0.000065
      9          1           0        3.144133    2.133631   -0.000111
     10          1           0        5.625387    2.060106   -0.000232
     11          1           0        6.808448   -0.129316   -0.000197
     12          6           0        1.488722    0.027535    0.000039
     13          6           0        0.271513    0.062421    0.000090
     14          6           0       -1.150043    0.100426    0.000081
     15          6           0       -1.833941    1.335149    0.000080
     16          6           0       -1.898898   -1.100850    0.000064
     17          6           0       -3.224514    1.362433    0.000058
     18          1           0       -1.263084    2.258681    0.000092
     19          6           0       -3.285543   -1.064468    0.000046
     20          1           0       -1.372569   -2.050637    0.000073
     21          6           0       -3.962416    0.168277    0.000043
     22          1           0       -3.746409    2.317503    0.000065
     23          1           0       -3.869626   -1.980170    0.000030
     24          6           0       -5.439626    0.217675    0.000015
     25          8           0       -6.169373   -0.759542   -0.000024
     26          1           0       -5.874904    1.241122    0.000033
 ---------------------------------------------------------------------

 SCF Done:  E(RB3LYP) =  -652.830360643     A.U. after    1 cycles

 The electronic state is 1-A.
 Alpha  occ. eigenvalues --  -19.15964 -10.28555 -10.24458 -10.23498 -10.22371
 Alpha  occ. eigenvalues --  -10.22043 -10.21920 -10.21896 -10.21737 -10.21540
 Alpha  occ. eigenvalues --  -10.21527 -10.21357 -10.21300 -10.21245 -10.21230
 Alpha  occ. eigenvalues --  -10.20944  -1.05156  -0.88787  -0.87917  -0.81491
 Alpha  occ. eigenvalues --   -0.79103  -0.77417  -0.76674  -0.74024  -0.67804
 Alpha  occ. eigenvalues --   -0.63796  -0.63268  -0.62552  -0.59077  -0.56415
 Alpha  occ. eigenvalues --   -0.54492  -0.51029  -0.49742  -0.48073  -0.47264
 Alpha  occ. eigenvalues --   -0.46059  -0.45200  -0.44725  -0.44167  -0.43959
 Alpha  occ. eigenvalues --   -0.41922  -0.39876  -0.39871  -0.38420  -0.37672
 Alpha  occ. eigenvalues --   -0.37128  -0.36711  -0.33338  -0.28947  -0.28888
 Alpha  occ. eigenvalues --   -0.27999  -0.27309  -0.26818  -0.23326
 Alpha virt. eigenvalues --   -0.09254  -0.04154  -0.03229  -0.02775  -0.00489
 Alpha virt. eigenvalues --    0.00481   0.00924   0.01336   0.01743   0.02521
 Alpha virt. eigenvalues --    0.03131   0.03438   0.04211   0.04545   0.04839

 Mulliken charges:
               1
     1  C   -0.146185
     2  C   -0.358716
     3  C    0.315161
     4  C   -0.333106
     5  C   -0.143852
     6  C   -0.188868
     7  H    0.185758
     8  H    0.195804
     9  H    0.194693
    10  H    0.185433
    11  H    0.184308
    12  C   -0.069578
    13  C   -0.018257
    14  C   -0.052260
    15  C   -0.083450
    16  C   -0.007094
    17  C   -1.002287
    18  H    0.198892
    19  C   -0.170636
    20  H    0.200230
    21  C    0.717021
    22  H    0.190414
    23  H    0.221090
    24  C    0.012078
    25  O   -0.382007
    26  H    0.155415
 Sum of Mulliken charges =   0.00000

 Dipole moment (field-independent basis, Debye):
    X=              4.2922    Y=              1.7126    Z=              0.0000  Tot=              4.6213
 Quadrupole moment (field-independent basis, Debye-Ang):
   XX=           -103.7604   YY=            -82.3248   ZZ=            -98.6458
   XY=            -11.5656   XZ=             -0.0012   YZ=             -0.0003

  Exact polarizability: 406.471  -0.338 167.231  -0.005  -0.001  87.958
 Approx polarizability: 576.865   7.150 288.713  -0.007  -0.002 130.431

                      1                      2                      3
                      A                      A                      A
 Frequencies --     22.5924                36.4473                36.6537
 Red. masses --      3.8173                 6.6108                 5.8083
 Frc consts  --      0.0011                 0.0052                 0.0046
 IR Inten    --      0.6259                 0.0001                 0.1742

                      4                      5                      6
                      A                      A                      A
 Frequencies --     94.5832               129.6828               152.5548
 Red. masses --      6.7812                 5.9873                 4.1066
 Frc consts  --      0.0357                 0.0593                 0.0563
 IR Inten    --      4.7240                 1.4639                 4.6283

                      7                      8                      9
                      A                      A                      A
 Frequencies --    211.7540               232.1702               249.3268
 Red. masses --      7.7909                 3.4262                 5.7956
 Frc consts  --      0.2058                 0.1088                 0.2123
 IR Inten    --      2.9834                 2.2767                 8.5495

                     10                     11                     12
                      A                      A                      A
 Frequencies --    338.9266               412.0010               417.2306
 Red. masses --      4.2753                 2.9075                 3.1537
 Frc consts  --      0.2894                 0.2908                 0.3235
 IR Inten    --      3.3838                 0.0019                 0.0641

                     13                     14                     15
                      A                      A                      A
 Frequencies --    429.0210               450.0256               482.3835
 Red. masses --      3.9833                 8.4079                 6.5949
 Frc consts  --      0.4320                 1.0033                 0.9042
 IR Inten    --      1.2974                 6.9508                 0.8945

                     16                     17                     18
                      A                      A                      A
 Frequencies --    532.4511               546.4430               580.1929
 Red. masses --      2.9958                 8.2634                 4.1920
 Frc consts  --      0.5004                 1.4538                 0.8314
 IR Inten    --     19.4748                 0.1799                 3.0105

                     19                     20                     21
                      A                      A                      A
 Frequencies --    600.1020               634.4873               651.2383
 Red. masses --      7.1561                 6.6047                 7.2687
 Frc consts  --      1.5184                 1.5666                 1.8163
 IR Inten    --      0.2737                 0.0013                 1.2837

                     22                     23                     24
                      A                      A                      A
 Frequencies --    698.7938               711.0030               719.6229
 Red. masses --      1.9432                 6.1242                 3.7935
 Frc consts  --      0.5591                 1.8241                 1.1574
 IR Inten    --     35.1708                33.8600                 1.5118

                     25                     26                     27
                      A                      A                      A
 Frequencies --    771.5507               826.3171               843.2055
 Red. masses --      1.7863                 5.0704                 1.4233
 Frc consts  --      0.6265                 2.0398                 0.5962
 IR Inten    --     44.5686                47.4967                42.9463

                     28                     29                     30
                      A                      A                      A
 Frequencies --    853.5853               857.5339               870.2575
 Red. masses --      1.2486                 1.3072                 6.0195
 Frc consts  --      0.5360                 0.5664                 2.6860
 IR Inten    --      0.0453                13.2044                22.2293

                     31                     32                     33
                      A                      A                      A
 Frequencies --    932.1729               973.0141               980.8517
 Red. masses --      1.4042                 1.3204                 1.3659
 Frc consts  --      0.7189                 0.7365                 0.7742
 IR Inten    --      2.9610                 0.0759                 0.0000

                     34                     35                     36
                      A                      A                      A
 Frequencies --    996.1137              1003.8298              1012.8537
 Red. masses --      1.3543                 1.2854                 6.2616
 Frc consts  --      0.7917                 0.7631                 3.7847
 IR Inten    --      0.0013                 0.0194                 0.5115

                     37                     38                     39
                      A                      A                      A
 Frequencies --   1028.0370              1034.0325              1051.9301
 Red. masses --      1.7662                 2.7835                 2.2668
 Frc consts  --      1.0998                 1.7535                 1.4779
 IR Inten    --      1.6848                 0.4016                 3.6426

                     40                     41                     42
                      A                      A                      A
 Frequencies --   1110.0401              1146.5580              1161.3937
 Red. masses --      1.6218                 1.4050                 3.6878
 Frc consts  --      1.1774                 1.0883                 2.9307
 IR Inten    --      5.2067                 7.1749                37.3418

                     43                     44                     45
                      A                      A                      A
 Frequencies --   1200.9024              1206.4819              1217.2774
 Red. masses --      1.1093                 1.3746                 1.1548
 Frc consts  --      0.9426                 1.1789                 1.0082
 IR Inten    --      0.0251               104.9824                 2.0310

                     46                     47                     48
                      A                      A                      A
 Frequencies --   1239.6740              1326.3014              1331.1160
 Red. masses --      2.1433                 3.0232                 2.5051
 Frc consts  --      1.9407                 3.1333                 2.6152
 IR Inten    --     83.7872                 0.5402                 3.7293

                     49                     50                     51
                      A                      A                      A
 Frequencies --   1342.7405              1351.5629              1364.4606
 Red. masses --      2.2287                 3.8686                 1.7101
 Frc consts  --      2.3675                 4.1637                 1.8758
 IR Inten    --     42.6379                13.0890                 0.6239

                     52                     53                     54
                      A                      A                      A
 Frequencies --   1430.5852              1457.5571              1482.0546
 Red. masses --      1.5678                 1.9697                 2.1869
 Frc consts  --      1.8905                 2.4655                 2.8302
 IR Inten    --     17.2139                 8.1190                 4.6981

                     55                     56                     57
                      A                      A                      A
 Frequencies --   1529.9471              1552.2442              1594.7561
 Red. masses --      2.1435                 2.6400                 6.0989
 Frc consts  --      2.9562                 3.7477                 9.1389
 IR Inten    --      9.5441                 4.8389                39.6965

                     58                     59                     60
                      A                      A                      A
 Frequencies --   1616.8303              1645.5264              1654.1740
 Red. masses --      4.9478                 5.2158                 5.4497
 Frc consts  --      7.6206                 8.3211                 8.7858
 IR Inten    --      1.3431                95.9695               219.0711

                     61                     62                     63
                      A                      A                      A
 Frequencies --   1767.4205              2302.3806              2914.5393
 Red. masses --      9.6749                11.9969                 1.0840
 Frc consts  --     17.8065                37.4691                 5.4253
 IR Inten    --    469.9036                75.7078               159.1128

                     64                     65                     66
                      A                      A                      A
 Frequencies --   3176.6642              3181.8189              3190.3324
 Red. masses --      1.0890                 1.0857                 1.0886
 Frc consts  --      6.4747                 6.4762                 6.5281
 IR Inten    --     12.3850                 1.9608                 4.6676

                     67                     68                     69
                      A                      A                      A
 Frequencies --   3201.1959              3201.9893              3208.4439
 Red. masses --      1.0920                 1.0884                 1.0943
 Frc consts  --      6.5930                 6.5747                 6.6374
 IR Inten    --     18.6162                 1.6497                21.6687

                     70                     71                     72
                      A                      A                      A
 Frequencies --   3210.5369              3213.1792              3217.6459
 Red. masses --      1.0935                 1.0976                 1.0949
 Frc consts  --      6.6406                 6.6766                 6.6789
 IR Inten    --      8.8127                14.8634                 3.0640

 - Thermochemistry -
 -------------------
 Temperature   298.150 Kelvin.  Pressure   1.00000 Atm.
 Atom     1 has atomic number  6 and mass  12.00000

 Molecular mass:   206.07317 amu.
 Principal axes and moments of inertia in atomic units:
                           1         2         3
     Eigenvalues --   685.54734********************
           X            0.99999  -0.00328   0.00001
           Y            0.00328   0.99999   0.00001
           Z           -0.00001  -0.00001   1.00000
 This molecule is an asymmetric top.
 Rotational symmetry number  1.
 Warning -- assumption of classical behavior for rotation
           may cause significant error
 Rotational temperatures (Kelvin)      0.12634     0.00771     0.00727
 Rotational constants (GHZ):           2.63256     0.16070     0.15146
 Zero-point vibrational energy     527273.9 (Joules/Mol)
                                  126.02148 (Kcal/Mol)
 Warning -- explicit consideration of  19 degrees of freedom as
           vibrations may cause significant error
 Vibrational temperatures:     32.51    52.44    52.74   136.08   186.58
          (Kelvin)            219.49   304.67   334.04   358.73   487.64
                              592.78   600.30   617.27   647.49   694.04
                              766.08   786.21   834.77   863.41   912.89
                              936.99  1005.41  1022.97  1035.38  1110.09
                             1188.89  1213.18  1228.12  1233.80  1252.11
                             1341.19  1399.95  1411.23  1433.19  1444.29
                             1457.27  1479.12  1487.74  1513.49  1597.10
                             1649.64  1670.99  1727.83  1735.86  1751.39
                             1783.61  1908.25  1915.18  1931.90  1944.60
                             1963.15  2058.29  2097.10  2132.35  2201.25
                             2233.33  2294.50  2326.26  2367.55  2379.99
                             2542.92  3312.61  4193.37  4570.51  4577.93
                             4590.18  4605.81  4606.95  4616.24  4619.25
                             4623.05  4629.47

 Zero-point correction=                           0.200828 (Hartree/Particle)
 Thermal correction to Energy=                    0.213920
 Thermal correction to Enthalpy=                  0.214864
 Thermal correction to Gibbs Free Energy=         0.158622
 Sum of electronic and zero-point Energies=           -652.629533
 Sum of electronic and thermal Energies=              -652.616441
 Sum of electronic and thermal Enthalpies=            -652.615497
 Sum of electronic and thermal Free Energies=         -652.671739

                     E (Thermal)             CV                S
                      KCal/Mol        Cal/Mol-Kelvin    Cal/Mol-Kelvin
 Total                  134.237             50.081            118.371
 Electronic               0.000              0.000              0.000
 Translational            0.889              2.981             41.873
 Rotational               0.889              2.981             32.884
 Vibrational            132.459             44.119             43.615
 Vibration     1          0.593              1.985              6.392
 Vibration     2          0.594              1.982              5.443
 Vibration     3          0.594              1.982              5.432
 Vibration     4          0.603              1.953              3.563
 Vibration     5          0.612              1.924              2.951
 Vibration     6          0.619              1.900              2.640
 Vibration     7          0.643              1.823              2.028
 Vibration     8          0.653              1.792              1.862
 Vibration     9          0.662              1.764              1.735
 Vibration    10          0.719              1.598              1.217
 Vibration    11          0.776              1.444              0.920
 Vibration    12          0.780              1.433              0.901
 Vibration    13          0.790              1.407              0.862
 Vibration    14          0.809              1.361              0.796
 Vibration    15          0.839              1.289              0.704
 Vibration    16          0.887              1.178              0.582
 Vibration    17          0.902              1.147              0.552
 Vibration    18          0.937              1.074              0.485
 Vibration    19          0.958              1.032              0.449

 Optimization completed.
    -- Stationary point found.
 Normal termination of Gaussian 16 at Sun Sep 17 15:12:47 2023.
