 Gaussian 16, Revision B.01,
 Gaussian 16:  EM64L-G16RevB.01 20-Dec-2017

 ---------------------------------------------------------
 # opt freq b3lyp/6-31+g(d) empiricaldispersion=gd3 volume
 ---------------------------------------------------------

 -------------
 ML molecule85
 -------------
 Symbolic Z-matrix:
 Charge =  0 Multiplicity = 1

 SCF Done:  E(RB3LYP) =  -630.698495460     A.U. after   16 cycles
 SCF Done:  E(RB3LYP) =  -624.767482700     A.U. after   21 cycles
 SCF Done:  E(RB3LYP) =  -630.608355956     A.U. after   16 cycles
 SCF Done:  E(RB3LYP) =  -630.741899406     A.U. after   14 cycles
 SCF Done:  E(RB3LYP) =  -630.751070115     A.U. after   14 cycles
 SCF Done:  E(RB3LYP) =  -630.753309542     A.U. after   15 cycles
 SCF Done:  E(RB3LYP) =  -630.765689876     A.U. after   14 cycles
 SCF Done:  E(RB3LYP) =  -630.766365603     A.U. after   16 cycles
 SCF Done:  E(RB3LYP) =  -630.771923345     A.U. after   14 cycles
 SCF Done:  E(RB3LYP) =  -630.777439074     A.U. after   14 cycles
 SCF Done:  E(RB3LYP) =  -630.798441875     A.U. after   11 cycles
 SCF Done:  E(RB3LYP) =  -630.798443068     A.U. after   12 cycles
 SCF Done:  E(RB3LYP) =  -630.798441536     A.U. after   12 cycles
 SCF Done:  E(RB3LYP) =  -630.798440807     A.U. after   12 cycles
 SCF Done:  E(RB3LYP) =  -630.798443070     A.U. after   13 cycles
 SCF Done:  E(RB3LYP) =  -630.798440738     A.U. after   13 cycles
 SCF Done:  E(RB3LYP) =  -630.798440281     A.U. after   11 cycles
 SCF Done:  E(RB3LYP) =  -630.798440891     A.U. after   10 cycles
 SCF Done:  E(RB3LYP) =  -630.798440901     A.U. after   10 cycles
 Optimization completed.
    -- Stationary point found.
 Normal termination of Gaussian 16 at Mon Sep 18 13:51:24 2023.

 ---------------------------------------------------------------------
 #N Geom=AllCheck Guess=TCheck SCRF=Check GenChk RB3LYP/6-31+G(d) Freq
 ---------------------------------------------------------------------

 Structure from the checkpoint file:  "molecule_85.chk"
 -------------
 ML molecule85
 -------------
 Charge =  0 Multiplicity = 1

                         Standard orientation:
 ---------------------------------------------------------------------
 Center     Atomic      Atomic             Coordinates (Angstroms)
 Number     Number       Type             X           Y           Z
 ---------------------------------------------------------------------
      1          6           0        4.260396   -0.949294    0.011008
      2          6           0        3.562644   -0.778229   -1.189624
      3          6           0        2.388014   -0.022057   -1.219798
      4          6           0        1.923420    0.553443   -0.037166
      5          6           0        2.606688    0.395968    1.167100
      6          6           0        3.782618   -0.360296    1.185864
      7          1           0        3.934006   -1.229333   -2.105903
      8          1           0        4.324408   -0.486850    2.119359
      9          8           0        0.785484    1.357847   -0.064121
     10          6           0       -0.454093    0.774258   -0.031646
     11          6           0       -0.663265   -0.599075    0.149674
     12          6           0       -1.541726    1.647361   -0.178906
     13          6           0       -1.965174   -1.094034    0.180427
     14          6           0       -2.836966    1.149430   -0.146903
     15          1           0       -1.348265    2.706436   -0.316415
     16          6           0       -3.062564   -0.229700    0.032337
     17          1           0       -2.133953   -2.157276    0.321523
     18          1           0       -3.681370    1.822085   -0.261553
     19          1           0        1.832388    0.127722   -2.140861
     20          1           0        0.179217   -1.271221    0.266548
     21          6           0       -4.398377   -0.745829    0.063525
     22          7           0       -5.484534   -1.165013    0.088537
     23          1           0        5.174975   -1.535604    0.029572
     24          1           0        2.216775    0.864683    2.065573
 ---------------------------------------------------------------------

 SCF Done:  E(RB3LYP) =  -630.798440901     A.U. after    1 cycles

 The electronic state is 1-A.
 Alpha  occ. eigenvalues --  -19.21851 -14.34268 -10.28731 -10.27404 -10.24399
 Alpha  occ. eigenvalues --  -10.23539 -10.23130 -10.23033 -10.22071 -10.21996
 Alpha  occ. eigenvalues --  -10.21975 -10.21907 -10.21832 -10.21778 -10.21596
 Alpha  occ. eigenvalues --   -1.10708  -0.91345  -0.88940  -0.87591  -0.79995
 Alpha  occ. eigenvalues --   -0.78295  -0.77465  -0.75996  -0.67544  -0.64937
 Alpha  occ. eigenvalues --   -0.63842  -0.61528  -0.57577  -0.56814  -0.52329
 Alpha  occ. eigenvalues --   -0.51181  -0.49519  -0.47525  -0.47086  -0.45604
 Alpha  occ. eigenvalues --   -0.45013  -0.43651  -0.42855  -0.42258  -0.39465
 Alpha  occ. eigenvalues --   -0.39214  -0.38789  -0.37078  -0.36588  -0.36502
 Alpha  occ. eigenvalues --   -0.33651  -0.33277  -0.28722  -0.27907  -0.27061
 Alpha  occ. eigenvalues --   -0.25075
 Alpha virt. eigenvalues --   -0.05420  -0.04400  -0.03197  -0.02974  -0.00852
 Alpha virt. eigenvalues --    0.00405   0.01447   0.01611   0.02217   0.02422
 Alpha virt. eigenvalues --    0.03110   0.03535   0.03899   0.04315   0.05387

 Mulliken charges:
               1
     1  C   -0.249587
     2  C   -0.124581
     3  C   -0.065239
     4  C    0.073594
     5  C   -0.000307
     6  C   -0.152262
     7  H    0.188193
     8  H    0.188181
     9  O   -0.321088
    10  C   -0.259253
    11  C    0.944259
    12  C   -0.258525
    13  C   -0.848750
    14  C   -0.370424
    15  H    0.203432
    16  C    0.571041
    17  H    0.207723
    18  H    0.208269
    19  H    0.193824
    20  H    0.213595
    21  C   -0.182812
    22  N   -0.539028
    23  H    0.184798
    24  H    0.194949
 Sum of Mulliken charges =   0.00000

 Dipole moment (field-independent basis, Debye):
    X=              5.8162    Y=              0.5776    Z=             -0.0649  Tot=              5.8452
 Quadrupole moment (field-independent basis, Debye-Ang):
   XX=           -112.5699   YY=            -85.5698   ZZ=            -83.6518
   XY=            -15.4772   XZ=              1.8912   YZ=              0.4709

  Exact polarizability: 237.625  -4.102 131.262   3.542   0.841 116.406
 Approx polarizability: 328.046  -4.048 224.854   7.389   1.326 191.021

 ******    1 imaginary frequencies (negative Signs) ******

                      1                      2                      3
                      A                      A                      A
 Frequencies --     -3.9099                46.1456                65.2376
 Red. masses --      4.6467                 3.8944                 5.9477
 Frc consts  --      0.0000                 0.0049                 0.0149
 IR Inten    --      0.1250                 0.0541                 0.6404

                      4                      5                      6
                      A                      A                      A
 Frequencies --     96.1894               147.3715               242.2328
 Red. masses --      8.5557                 8.2246                 4.9233
 Frc consts  --      0.0466                 0.1052                 0.1702
 IR Inten    --      4.4083                 6.1060                 0.1602

                      7                      8                      9
                      A                      A                      A
 Frequencies --    249.4589               300.0052               403.3765
 Red. masses --      6.8101                 5.8991                 6.0804
 Frc consts  --      0.2497                 0.3128                 0.5829
 IR Inten    --      0.9227                 1.1848                 2.4713

                     10                     11                     12
                      A                      A                      A
 Frequencies --    419.1448               423.5683               439.4518
 Red. masses --      3.0515                 2.9888                 6.2249
 Frc consts  --      0.3159                 0.3159                 0.7083
 IR Inten    --      0.1080                 0.0907                 3.0570

                     13                     14                     15
                      A                      A                      A
 Frequencies --    477.7902               513.8130               556.5451
 Red. masses --      5.0772                 4.7184                 7.5843
 Frc consts  --      0.6829                 0.7339                 1.3841
 IR Inten    --      0.4342                 9.3453                 0.4090

                     16                     17                     18
                      A                      A                      A
 Frequencies --    558.8562               612.3546               628.3658
 Red. masses --      3.3204                 4.8016                 6.5351
 Frc consts  --      0.6110                 1.0608                 1.5203
 IR Inten    --     19.4635                 1.6466                 0.0772

                     19                     20                     21
                      A                      A                      A
 Frequencies --    661.7236               697.3307               705.1145
 Red. masses --      7.1211                 3.8996                 2.2739
 Frc consts  --      1.8372                 1.1173                 0.6661
 IR Inten    --      0.7092                18.8777                13.1841

                     22                     23                     24
                      A                      A                      A
 Frequencies --    713.9123               782.9146               823.3197
 Red. masses --      4.0413                 2.2393                 4.2228
 Frc consts  --      1.2136                 0.8087                 1.6865
 IR Inten    --      1.8341                46.0065                12.5184

                     25                     26                     27
                      A                      A                      A
 Frequencies --    832.1459               844.7895               850.0441
 Red. masses --      1.2519                 1.3138                 1.5324
 Frc consts  --      0.5108                 0.5524                 0.6524
 IR Inten    --      0.6448                12.9457                41.6848

                     28                     29                     30
                      A                      A                      A
 Frequencies --    887.1570               929.8165               964.9134
 Red. masses --      6.2268                 1.4985                 1.2959
 Frc consts  --      2.8874                 0.7633                 0.7109
 IR Inten    --     31.4521                 7.6912                 0.6526

                     31                     32                     33
                      A                      A                      A
 Frequencies --    976.1001               977.8963              1000.3388
 Red. masses --      1.3370                 1.3536                 1.2747
 Frc consts  --      0.7506                 0.7626                 0.7515
 IR Inten    --      0.0439                 0.0487                 0.1035

                     34                     35                     36
                      A                      A                      A
 Frequencies --   1017.6494              1031.1326              1047.0973
 Red. masses --      6.2807                 2.7267                 2.0756
 Frc consts  --      3.8323                 1.7081                 1.3408
 IR Inten    --      3.6650                 2.0653                 9.6092

                     37                     38                     39
                      A                      A                      A
 Frequencies --   1101.8807              1150.1394              1193.1823
 Red. masses --      1.5145                 1.3199                 1.3103
 Frc consts  --      1.0834                 1.0287                 1.0991
 IR Inten    --      7.2599                 7.3917                 5.8066

                     40                     41                     42
                      A                      A                      A
 Frequencies --   1197.2310              1205.4023              1227.3480
 Red. masses --      1.1174                 1.3459                 2.5980
 Frc consts  --      0.9436                 1.1522                 2.3058
 IR Inten    --      0.0560                55.9469                40.0050

                     43                     44                     45
                      A                      A                      A
 Frequencies --   1228.6611              1283.8559              1333.3541
 Red. masses --      2.9898                 4.8826                 1.9464
 Frc consts  --      2.6592                 4.7417                 2.0388
 IR Inten    --      9.9437               539.5297                 1.0582

                     46                     47                     48
                      A                      A                      A
 Frequencies --   1339.1642              1344.1746              1356.9338
 Red. masses --      2.0041                 2.4548                 2.9213
 Frc consts  --      2.1175                 2.6132                 3.1691
 IR Inten    --     20.4706                10.0844                 0.2441

                     49                     50                     51
                      A                      A                      A
 Frequencies --   1459.6458              1493.4080              1531.0236
 Red. masses --      3.0605                 2.1946                 2.2499
 Frc consts  --      3.8418                 2.8838                 3.1073
 IR Inten    --      4.6427                 1.9186               166.1099

                     52                     53                     54
                      A                      A                      A
 Frequencies --   1545.6268              1613.0872              1640.9620
 Red. masses --      2.4275                 6.7415                 5.4672
 Frc consts  --      3.4168                10.3352                 8.6739
 IR Inten    --    124.2243                 7.0907               129.8816

                     55                     56                     57
                      A                      A                      A
 Frequencies --   1643.7320              1660.9490              2330.4843
 Red. masses --      6.0570                 5.6394                12.6784
 Frc consts  --      9.6420                 9.1664                40.5701
 IR Inten    --     11.0158                72.1923                86.2842

                     58                     59                     60
                      A                      A                      A
 Frequencies --   3185.0624              3194.0483              3204.8730
 Red. masses --      1.0859                 1.0892                 1.0923
 Frc consts  --      6.4905                 6.5470                 6.6104
 IR Inten    --      0.6942                 7.9269                23.9227

                     61                     62                     63
                      A                      A                      A
 Frequencies --   3207.0507              3208.4829              3212.2173
 Red. masses --      1.0890                 1.0899                 1.0948
 Frc consts  --      6.5992                 6.6103                 6.6555
 IR Inten    --      3.9441                 1.8082                10.3481

                     64                     65                     66
                      A                      A                      A
 Frequencies --   3216.3047              3222.3747              3229.4042
 Red. masses --      1.0971                 1.0954                 1.0934
 Frc consts  --      6.6866                 6.7017                 6.7183
 IR Inten    --      3.0778                 2.9964                 1.4870

 - Thermochemistry -
 -------------------
 Temperature   298.150 Kelvin.  Pressure   1.00000 Atm.
 Atom     1 has atomic number  6 and mass  12.00000

 Molecular mass:   195.06841 amu.
 Principal axes and moments of inertia in atomic units:
                           1         2         3
     Eigenvalues --   946.002656672.864146991.20701
           X            0.99993  -0.01164   0.00135
           Y            0.01163   0.99991   0.00703
           Z           -0.00143  -0.00702   0.99997
 This molecule is an asymmetric top.
 Rotational symmetry number  1.
 Warning -- assumption of classical behavior for rotation
           may cause significant error
 Rotational temperatures (Kelvin)      0.09156     0.01298     0.01239
 Rotational constants (GHZ):           1.90775     0.27046     0.25814
    1 imaginary frequencies ignored.
 Zero-point vibrational energy     482593.7 (Joules/Mol)
                                  115.34267 (Kcal/Mol)
 Warning -- explicit consideration of  16 degrees of freedom as
           vibrations may cause significant error
 Vibrational temperatures:     66.39    93.86   138.40   212.03   348.52
          (Kelvin)            358.92   431.64   580.37   603.06   609.42
                              632.27   687.43   739.26   800.74   804.07
                              881.04   904.08   952.07  1003.30  1014.50
                             1027.16  1126.44  1184.57  1197.27  1215.46
                             1223.02  1276.42  1337.80  1388.30  1404.39
                             1406.97  1439.26  1464.17  1483.57  1506.54
                             1585.36  1654.79  1716.72  1722.55  1734.31
                             1765.88  1767.77  1847.18  1918.40  1926.76
                             1933.97  1952.33  2100.10  2148.68  2202.80
                             2223.81  2320.87  2360.98  2364.96  2389.74
                             3353.05  4582.59  4595.52  4611.10  4614.23
                             4616.29  4621.66  4627.55  4636.28  4646.39

 Zero-point correction=                           0.183810 (Hartree/Particle)
 Thermal correction to Energy=                    0.194749
 Thermal correction to Enthalpy=                  0.195693
 Thermal correction to Gibbs Free Energy=         0.145942
 Sum of electronic and zero-point Energies=           -630.614631
 Sum of electronic and thermal Energies=              -630.603692
 Sum of electronic and thermal Enthalpies=            -630.602748
 Sum of electronic and thermal Free Energies=         -630.652499

                     E (Thermal)             CV                S
                      KCal/Mol        Cal/Mol-Kelvin    Cal/Mol-Kelvin
 Total                  122.207             44.092            104.711
 Electronic               0.000              0.000              0.000
 Translational            0.889              2.981             41.710
 Rotational               0.889              2.981             32.157
 Vibrational            120.429             38.130             30.845
 Vibration     1          0.595              1.979              4.976
 Vibration     2          0.597              1.971              4.292
 Vibration     3          0.603              1.952              3.530
 Vibration     4          0.617              1.906              2.706
 Vibration     5          0.658              1.776              1.786
 Vibration     6          0.662              1.764              1.734
 Vibration     7          0.693              1.674              1.417
 Vibration     8          0.769              1.463              0.950
 Vibration     9          0.782              1.429              0.895
 Vibration    10          0.786              1.419              0.880
 Vibration    11          0.799              1.384              0.828
 Vibration    12          0.834              1.299              0.716
 Vibration    13          0.869              1.219              0.624
 Vibration    14          0.912              1.125              0.531
 Vibration    15          0.914              1.120              0.526
 Vibration    16          0.972              1.006              0.429

                           ! Non-Optimized Parameters !
 Normal termination of Gaussian 16 at Mon Sep 18 13:55:13 2023.
