 Gaussian 16, Revision B.01,
 Gaussian 16:  EM64L-G16RevB.01 20-Dec-2017

 ----------------------------------------------------------------------
 # opt freq b3lyp/6-31+g(d) geom=connectivity empiricaldispersion=gd3 v
 olume
 ----------------------------------------------------------------------

 -------------
 ML molecule95
 -------------
 Symbolic Z-matrix:
 Charge =  0 Multiplicity = 1

 SCF Done:  E(RB3LYP) =  -652.978802067     A.U. after   15 cycles
 SCF Done:  E(RB3LYP) =  -653.008227208     A.U. after   16 cycles
 SCF Done:  E(RB3LYP) =  -653.036060908     A.U. after   15 cycles
 SCF Done:  E(RB3LYP) =  -653.054356902     A.U. after   13 cycles
 SCF Done:  E(RB3LYP) =  -653.058612122     A.U. after   15 cycles
 SCF Done:  E(RB3LYP) =  -653.067640214     A.U. after   16 cycles
 SCF Done:  E(RB3LYP) =  -653.071072795     A.U. after   15 cycles
 SCF Done:  E(RB3LYP) =  -653.073323268     A.U. after   15 cycles
 SCF Done:  E(RB3LYP) =  -653.074669018     A.U. after   15 cycles
 SCF Done:  E(RB3LYP) =  -653.075207732     A.U. after   14 cycles
 SCF Done:  E(RB3LYP) =  -653.078200768     A.U. after   13 cycles
 SCF Done:  E(RB3LYP) =  -653.078796712     A.U. after   13 cycles
 SCF Done:  E(RB3LYP) =  -653.078809023     A.U. after   11 cycles
 SCF Done:  E(RB3LYP) =  -653.078812656     A.U. after   12 cycles
 SCF Done:  E(RB3LYP) =  -653.078813352     A.U. after   10 cycles
 SCF Done:  E(RB3LYP) =  -653.078813706     A.U. after   11 cycles
 SCF Done:  E(RB3LYP) =  -653.078813777     A.U. after   11 cycles
 SCF Done:  E(RB3LYP) =  -653.078813900     A.U. after   11 cycles
 SCF Done:  E(RB3LYP) =  -653.078813960     A.U. after   11 cycles
 Optimization completed.
    -- Stationary point found.
 Normal termination of Gaussian 16 at Fri Sep 15 06:38:12 2023.

 ---------------------------------------------------------------------
 #N Geom=AllCheck Guess=TCheck SCRF=Check GenChk RB3LYP/6-31+G(d) Freq
 ---------------------------------------------------------------------

 Structure from the checkpoint file:  "molecule_95.chk"
 -------------
 ML molecule95
 -------------
 Charge =  0 Multiplicity = 1

                         Standard orientation:
 ---------------------------------------------------------------------
 Center     Atomic      Atomic             Coordinates (Angstroms)
 Number     Number       Type             X           Y           Z
 ---------------------------------------------------------------------
      1          6           0        4.419365   -1.060001   -0.270468
      2          6           0        3.171471   -1.611939   -0.569425
      3          6           0        2.002763   -0.853669   -0.443625
      4          6           0        2.094388    0.472669   -0.008513
      5          6           0        3.338492    1.038313    0.292762
      6          6           0        4.494935    0.270436    0.159021
      7          1           0        3.098437   -2.642493   -0.908119
      8          1           0        3.376617    2.071079    0.626203
      9          1           0        5.459243    0.713295    0.395290
     10          8           0        1.005127    1.311941    0.115880
     11          6           0       -0.273654    0.770023    0.151691
     12          6           0       -0.695732    0.004530    1.245140
     13          6           0       -1.155102    1.064498   -0.881080
     14          6           0       -2.001253   -0.469886    1.291634
     15          6           0       -2.475139    0.595756   -0.836079
     16          1           0       -0.809263    1.664263   -1.717574
     17          6           0       -2.899453   -0.177210    0.251555
     18          1           0       -2.352204   -1.064563    2.129543
     19          1           0       -3.148541    0.840006   -1.649620
     20          1           0        1.036408   -1.285266   -0.681280
     21          1           0        0.003470   -0.213503    2.046887
     22          1           0        5.321790   -1.656635   -0.370580
     23          8           0       -4.159561   -0.690070    0.398399
     24          6           0       -5.121134   -0.425769   -0.614668
     25          1           0       -4.805438   -0.837327   -1.583267
     26          1           0       -6.037646   -0.922437   -0.291185
     27          1           0       -5.307094    0.652114   -0.718206
 ---------------------------------------------------------------------

 SCF Done:  E(RB3LYP) =  -653.078813960     A.U. after    1 cycles

 The electronic state is 1-A.
 Alpha  occ. eigenvalues --  -19.19322 -19.19282 -10.26020 -10.25689 -10.25137
 Alpha  occ. eigenvalues --  -10.25057 -10.20447 -10.20410 -10.20363 -10.20076
 Alpha  occ. eigenvalues --  -10.19913 -10.19864 -10.19455 -10.19283 -10.19153
 Alpha  occ. eigenvalues --   -1.08033  -1.07557  -0.86744  -0.85229  -0.77461
 Alpha  occ. eigenvalues --   -0.76251  -0.75174  -0.74107  -0.70175  -0.63259
 Alpha  occ. eigenvalues --   -0.62912  -0.61290  -0.58509  -0.55301  -0.53888
 Alpha  occ. eigenvalues --   -0.50299  -0.50146  -0.47860  -0.47473  -0.46224
 Alpha  occ. eigenvalues --   -0.44762  -0.44131  -0.43563  -0.43171  -0.42441
 Alpha  occ. eigenvalues --   -0.39987  -0.39691  -0.38054  -0.37548  -0.36740
 Alpha  occ. eigenvalues --   -0.34836  -0.34355  -0.33262  -0.31826  -0.26762
 Alpha  occ. eigenvalues --   -0.25698  -0.23682  -0.22002
 Alpha virt. eigenvalues --   -0.02637  -0.01098  -0.00779  -0.00056   0.00164
 Alpha virt. eigenvalues --    0.00885   0.02094   0.02160   0.02818   0.03285
 Alpha virt. eigenvalues --    0.03935   0.04282   0.04694   0.05217   0.05853

 Mulliken charges:
               1
     1  C   -0.103228
     2  C   -0.566560
     3  C    0.474418
     4  C   -0.243295
     5  C   -0.109132
     6  C   -0.345006
     7  H    0.180111
     8  H    0.189769
     9  H    0.180079
    10  O   -0.350805
    11  C    0.049990
    12  C   -0.049287
    13  C   -0.481430
    14  C   -0.213992
    15  C    0.411238
    16  H    0.192547
    17  C   -0.071613
    18  H    0.195198
    19  H    0.180399
    20  H    0.201354
    21  H    0.194733
    22  H    0.175894
    23  O   -0.386950
    24  C   -0.320558
    25  H    0.203064
    26  H    0.209228
    27  H    0.203836
 Sum of Mulliken charges =   0.00000

 Dipole moment (field-independent basis, Debye):
    X=             -1.5413    Y=             -0.5874    Z=             -1.1011  Tot=              1.9832
 Quadrupole moment (field-independent basis, Debye-Ang):
   XX=            -73.7737   YY=            -88.6155   ZZ=            -87.7625
   XY=             -1.3653   XZ=              7.3790   YZ=             -0.1793

  Exact polarizability: 230.405   4.133 132.586   8.544  -2.455 119.430
 Approx polarizability: 302.063  13.819 223.562  14.553  -7.658 194.917

                      1                      2                      3
                      A                      A                      A
 Frequencies --     10.4413                39.0741                58.4851
 Red. masses --      4.4035                 3.9491                 4.0976
 Frc consts  --      0.0003                 0.0036                 0.0083
 IR Inten    --      0.7145                 0.6876                 0.1574

                      4                      5                      6
                      A                      A                      A
 Frequencies --     91.3710               172.4899               200.0455
 Red. masses --      3.7581                 4.3678                 4.3000
 Frc consts  --      0.0185                 0.0766                 0.1014
 IR Inten    --      3.0164                 1.5648                 0.3478

                      7                      8                      9
                      A                      A                      A
 Frequencies --    238.5414               270.8854               300.9735
 Red. masses --      3.9327                 1.1782                 5.2065
 Frc consts  --      0.1318                 0.0509                 0.2779
 IR Inten    --      3.2797                 0.1786                 0.9314

                     10                     11                     12
                      A                      A                      A
 Frequencies --    365.0827               392.3390               423.2804
 Red. masses --      5.0214                 5.5498                 3.0337
 Frc consts  --      0.3943                 0.5033                 0.3202
 IR Inten    --      1.5266                 2.0480                 0.2434

                     13                     14                     15
                      A                      A                      A
 Frequencies --    434.0916               472.9601               506.0283
 Red. masses --      3.0879                 4.8161                 3.1046
 Frc consts  --      0.3428                 0.6347                 0.4684
 IR Inten    --      0.0746                 1.6793                 8.7500

                     16                     17                     18
                      A                      A                      A
 Frequencies --    518.9419               552.7991               606.4781
 Red. masses --      2.8459                 5.8002                 3.8861
 Frc consts  --      0.4516                 1.0443                 0.8422
 IR Inten    --     19.1897                 6.5702                 3.6329

                     19                     20                     21
                      A                      A                      A
 Frequencies --    626.9635               652.0636               697.9089
 Red. masses --      6.4526                 6.8574                 2.4488
 Frc consts  --      1.4944                 1.7179                 0.7027
 IR Inten    --      2.3892                 0.7850                19.2015

                     22                     23                     24
                      A                      A                      A
 Frequencies --    711.8904               747.2011               765.7887
 Red. masses --      4.4643                 2.9886                 1.8625
 Frc consts  --      1.3330                 0.9831                 0.6435
 IR Inten    --      4.2751                13.9024                67.2615

                     25                     26                     27
                      A                      A                      A
 Frequencies --    813.8418               817.6766               837.0758
 Red. masses --      1.8058                 2.1784                 1.2500
 Frc consts  --      0.7047                 0.8581                 0.5160
 IR Inten    --      8.1923                 8.2088                 0.6190

                     28                     29                     30
                      A                      A                      A
 Frequencies --    856.4474               888.6450               904.1020
 Red. masses --      1.9480                 5.9372                 1.4662
 Frc consts  --      0.8418                 2.7624                 0.7061
 IR Inten    --     59.6039                32.7187                 4.7977

                     31                     32                     33
                      A                      A                      A
 Frequencies --    941.0628               963.4252               970.7856
 Red. masses --      1.3572                 1.3221                 1.3424
 Frc consts  --      0.7082                 0.7230                 0.7454
 IR Inten    --      1.4548                 0.0851                 0.2336

                     34                     35                     36
                      A                      A                      A
 Frequencies --    989.9078              1012.9677              1028.1130
 Red. masses --      1.2584                 6.0624                 2.6368
 Frc consts  --      0.7266                 3.6651                 1.6422
 IR Inten    --      0.1306                 0.3214                 3.3887

                     37                     38                     39
                      A                      A                      A
 Frequencies --   1049.4528              1068.4836              1110.2979
 Red. masses --      2.1026                 6.3840                 1.5219
 Frc consts  --      1.3644                 4.2941                 1.1054
 IR Inten    --      8.5508                64.6367                 7.0168

                     40                     41                     42
                      A                      A                      A
 Frequencies --   1137.3368              1181.2181              1191.2858
 Red. masses --      1.2933                 1.2703                 1.2678
 Frc consts  --      0.9856                 1.0443                 1.0601
 IR Inten    --     12.1926                 1.0899                 8.8898

                     43                     44                     45
                      A                      A                      A
 Frequencies --   1194.7362              1203.4171              1214.9589
 Red. masses --      1.1199                 1.2020                 1.4076
 Frc consts  --      0.9418                 1.0256                 1.2242
 IR Inten    --      1.6260                19.9336                22.0517

                     46                     47                     48
                      A                      A                      A
 Frequencies --   1226.9189              1263.4709              1294.5454
 Red. masses --      2.5069                 3.7609                 6.7718
 Frc consts  --      2.2234                 3.5373                 6.6863
 IR Inten    --     17.1064               759.7327                24.1850

                     49                     50                     51
                      A                      A                      A
 Frequencies --   1329.6373              1340.2562              1354.7076
 Red. masses --      1.4130                 2.2652                 3.9975
 Frc consts  --      1.4718                 2.3973                 4.3225
 IR Inten    --      0.8947                13.7064                19.0355

                     52                     53                     54
                      A                      A                      A
 Frequencies --   1366.4012              1457.3129              1493.1881
 Red. masses --      2.7629                 3.1307                 1.1852
 Frc consts  --      3.0393                 3.9174                 1.5569
 IR Inten    --      8.1353                 1.4464                29.5237

                     55                     56                     57
                      A                      A                      A
 Frequencies --   1496.8190              1518.2486              1526.3060
 Red. masses --      2.2718                 1.0459                 1.1212
 Frc consts  --      2.9989                 1.4205                 1.5390
 IR Inten    --      0.5557                 8.3677               120.6421

                     58                     59                     60
                      A                      A                      A
 Frequencies --   1531.5479              1550.0557              1631.5470
 Red. masses --      2.0057                 2.3803                 6.5604
 Frc consts  --      2.7719                 3.3696                10.2891
 IR Inten    --    139.9943               213.7300                12.2733

                     61                     62                     63
                      A                      A                      A
 Frequencies --   1638.9387              1648.3744              1665.8708
 Red. masses --      6.0596                 5.6099                 5.9871
 Frc consts  --      9.5901                 8.9808                 9.7893
 IR Inten    --     24.1184                54.2758                24.0453

                     64                     65                     66
                      A                      A                      A
 Frequencies --   3017.9659              3077.5137              3154.8812
 Red. masses --      1.0346                 1.1067                 1.0994
 Frc consts  --      5.5521                 6.1757                 6.4473
 IR Inten    --     63.8177                41.5325                24.5651

                     67                     68                     69
                      A                      A                      A
 Frequencies --   3179.2421              3187.7114              3201.2751
 Red. masses --      1.0856                 1.0895                 1.0881
 Frc consts  --      6.4649                 6.5230                 6.5703
 IR Inten    --      1.7056                14.5221                12.1616

                     70                     71                     72
                      A                      A                      A
 Frequencies --   3203.3115              3205.7814              3211.9737
 Red. masses --      1.0930                 1.0895                 1.0953
 Frc consts  --      6.6078                 6.5969                 6.6578
 IR Inten    --     29.1795                 5.1496                12.0634

                     73                     74                     75
                      A                      A                      A
 Frequencies --   3216.4068              3219.5896              3226.4058
 Red. masses --      1.0951                 1.0930                 1.0927
 Frc consts  --      6.6748                 6.6756                 6.7016
 IR Inten    --      4.2736                 2.6707                 7.4896

 - Thermochemistry -
 -------------------
 Temperature   298.150 Kelvin.  Pressure   1.00000 Atm.
 Atom     1 has atomic number  6 and mass  12.00000

 Molecular mass:   200.08373 amu.
 Principal axes and moments of inertia in atomic units:
                           1         2         3
     Eigenvalues --   895.548017009.665117243.82160
           X            0.99997  -0.00154   0.00759
           Y            0.00158   0.99999  -0.00513
           Z           -0.00758   0.00515   0.99996
 This molecule is an asymmetric top.
 Rotational symmetry number  1.
 Warning -- assumption of classical behavior for rotation
           may cause significant error
 Rotational temperatures (Kelvin)      0.09672     0.01236     0.01196
 Rotational constants (GHZ):           2.01524     0.25746     0.24914
 Zero-point vibrational energy     572219.1 (Joules/Mol)
                                  136.76365 (Kcal/Mol)
 Warning -- explicit consideration of  18 degrees of freedom as
           vibrations may cause significant error
 Vibrational temperatures:     15.02    56.22    84.15   131.46   248.17
          (Kelvin)            287.82   343.21   389.74   433.03   525.27
                              564.49   609.01   624.56   680.48   728.06
                              746.64   795.35   872.59   902.06   938.17
                             1004.14  1024.25  1075.06  1101.80  1170.94
                             1176.45  1204.37  1232.24  1278.56  1300.80
                             1353.98  1386.15  1396.74  1424.26  1457.43
                             1479.23  1509.93  1537.31  1597.47  1636.37
                             1699.51  1713.99  1718.96  1731.45  1748.05
                             1765.26  1817.85  1862.56  1913.05  1928.33
                             1949.12  1965.95  2096.75  2148.36  2153.59
                             2184.42  2196.01  2203.56  2230.18  2347.43
                             2358.07  2371.64  2396.82  4342.18  4427.86
                             4539.17  4574.22  4586.41  4605.92  4608.85
                             4612.40  4621.31  4627.69  4632.27  4642.08

 Zero-point correction=                           0.217947 (Hartree/Particle)
 Thermal correction to Energy=                    0.230537
 Thermal correction to Enthalpy=                  0.231481
 Thermal correction to Gibbs Free Energy=         0.176497
 Sum of electronic and zero-point Energies=           -652.860867
 Sum of electronic and thermal Energies=              -652.848277
 Sum of electronic and thermal Enthalpies=            -652.847333
 Sum of electronic and thermal Free Energies=         -652.902317

                     E (Thermal)             CV                S
                      KCal/Mol        Cal/Mol-Kelvin    Cal/Mol-Kelvin
 Total                  144.664             49.174            115.725
 Electronic               0.000              0.000              0.000
 Translational            0.889              2.981             41.785
 Rotational               0.889              2.981             32.186
 Vibrational            142.887             43.212             41.753
 Vibration     1          0.593              1.987              7.925
 Vibration     2          0.594              1.981              5.305
 Vibration     3          0.596              1.974              4.508
 Vibration     4          0.602              1.955              3.630
 Vibration     5          0.626              1.876              2.408
 Vibration     6          0.638              1.840              2.133
 Vibration     7          0.657              1.782              1.814
 Vibration     8          0.675              1.727              1.591
 Vibration     9          0.693              1.672              1.411
 Vibration    10          0.738              1.544              1.100
 Vibration    11          0.760              1.487              0.991
 Vibration    12          0.785              1.420              0.881
 Vibration    13          0.795              1.396              0.845
 Vibration    14          0.830              1.310              0.729
 Vibration    15          0.861              1.237              0.643
 Vibration    16          0.874              1.208              0.612
 Vibration    17          0.908              1.134              0.538
 Vibration    18          0.965              1.018              0.439

 Optimization completed.
    -- Stationary point found.
 Normal termination of Gaussian 16 at Fri Sep 15 06:42:33 2023.
