 Gaussian 16, Revision B.01,
 Gaussian 16:  EM64L-G16RevB.01 20-Dec-2017

 ---------------------------------------------------------
 # opt freq b3lyp/6-31+g(d) empiricaldispersion=gd3 volume
 ---------------------------------------------------------

 -------------------
 Title Card Required
 -------------------
 Symbolic Z-matrix:
 Charge =  0 Multiplicity = 1

 SCF Done:  E(RB3LYP) =  -692.152120456     A.U. after   16 cycles
 SCF Done:  E(RB3LYP) =  -692.155772928     A.U. after   14 cycles
 SCF Done:  E(RB3LYP) =  -692.156613538     A.U. after   13 cycles
 SCF Done:  E(RB3LYP) =  -692.156570291     A.U. after   13 cycles
 SCF Done:  E(RB3LYP) =  -692.156596796     A.U. after   13 cycles
 SCF Done:  E(RB3LYP) =  -692.156638668     A.U. after   12 cycles
 SCF Done:  E(RB3LYP) =  -692.156629568     A.U. after   12 cycles
 SCF Done:  E(RB3LYP) =  -692.156643433     A.U. after   13 cycles
 SCF Done:  E(RB3LYP) =  -692.156643526     A.U. after   10 cycles
 SCF Done:  E(RB3LYP) =  -692.156643552     A.U. after    9 cycles
 Optimization completed.
    -- Stationary point found.
 Normal termination of Gaussian 16 at Sun Sep 17 14:53:39 2023.

 ---------------------------------------------------------------------
 #N Geom=AllCheck Guess=TCheck SCRF=Check GenChk RB3LYP/6-31+G(d) Freq
 ---------------------------------------------------------------------

 Structure from the checkpoint file:  "MOLECULE_1 .chk"
 -------------------
 Title Card Required
 -------------------
 Charge =  0 Multiplicity = 1

                         Standard orientation:
 ---------------------------------------------------------------------
 Center     Atomic      Atomic             Coordinates (Angstroms)
 Number     Number       Type             X           Y           Z
 ---------------------------------------------------------------------
      1          6           0        5.468205   -1.182324   -0.000365
      2          6           0        4.074448   -1.198104   -0.000225
      3          6           0        3.349041    0.011851   -0.000132
      4          6           0        4.055607    1.232875   -0.000177
      5          6           0        5.449451    1.238794   -0.000317
      6          6           0        6.160446    0.033669   -0.000414
      7          1           0        6.016178   -2.120971   -0.000436
      8          1           0        3.534100   -2.140250   -0.000185
      9          1           0        3.500731    2.166567   -0.000100
     10          1           0        5.982873    2.185801   -0.000351
     11          6           0        1.924302    0.000291    0.000028
     12          6           0        0.706712   -0.010834    0.000138
     13          6           0       -0.715847   -0.027696    0.000137
     14          6           0       -1.448877    1.177300    0.000212
     15          6           0       -1.421591   -1.252127    0.000074
     16          6           0       -2.840306    1.155502    0.000229
     17          1           0       -0.915770    2.123313    0.000258
     18          6           0       -2.809514   -1.263939    0.000081
     19          1           0       -0.864506   -2.184312    0.000020
     20          6           0       -3.541520   -0.062707    0.000162
     21          1           0       -3.376511    2.099404    0.000287
     22          1           0       -3.355755   -2.202020    0.000024
     23          6           0       -5.037777   -0.132807    0.000160
     24          8           0       -5.613301   -1.214037   -0.000042
     25          1           0        7.247208    0.042081   -0.000522
     26          6           0       -5.833779    1.161703    0.000405
     27          1           0       -5.598852    1.767004    0.884705
     28          1           0       -5.598983    1.767221   -0.883786
     29          1           0       -6.898310    0.919766    0.000442
 ---------------------------------------------------------------------

 SCF Done:  E(RB3LYP) =  -692.156643552     A.U. after    1 cycles

 The electronic state is 1-A.
 Alpha  occ. eigenvalues --  -19.14925 -10.28752 -10.23899 -10.23244 -10.21843
 Alpha  occ. eigenvalues --  -10.21596 -10.21566 -10.21382 -10.21286 -10.21269
 Alpha  occ. eigenvalues --  -10.21120 -10.21057 -10.21022 -10.21004 -10.20912
 Alpha  occ. eigenvalues --  -10.20605 -10.19787  -1.04622  -0.88280  -0.87655
 Alpha  occ. eigenvalues --   -0.81150  -0.78924  -0.76984  -0.76435  -0.75211
 Alpha  occ. eigenvalues --   -0.72861  -0.66135  -0.62957  -0.62639  -0.62307
 Alpha  occ. eigenvalues --   -0.56615  -0.56070  -0.53965  -0.49706  -0.48751
 Alpha  occ. eigenvalues --   -0.47903  -0.47017  -0.46296  -0.45213  -0.45024
 Alpha  occ. eigenvalues --   -0.44198  -0.43929  -0.42638  -0.41100  -0.40190
 Alpha  occ. eigenvalues --   -0.39074  -0.38434  -0.37430  -0.36852  -0.36658
 Alpha  occ. eigenvalues --   -0.36315  -0.32967  -0.28585  -0.28545  -0.27463
 Alpha  occ. eigenvalues --   -0.27076  -0.26085  -0.22962
 Alpha virt. eigenvalues --   -0.08589  -0.03748  -0.02800  -0.02532  -0.00442
 Alpha virt. eigenvalues --    0.00237   0.01409   0.01568   0.01707   0.02700
 Alpha virt. eigenvalues --    0.03363   0.03414   0.04192   0.04463   0.04663

 Mulliken charges:
               1
     1  C   -0.122791
     2  C   -0.417606
     3  C    0.510989
     4  C   -0.433703
     5  C   -0.126824
     6  C   -0.190347
     7  H    0.184984
     8  H    0.195864
     9  H    0.194623
    10  H    0.184568
    11  C   -0.161599
    12  C    0.018457
    13  C    0.006678
    14  C   -0.626551
    15  C   -0.225586
    16  C   -0.887721
    17  H    0.196088
    18  C    0.073840
    19  H    0.198608
    20  C    0.812896
    21  H    0.186258
    22  H    0.223640
    23  C    0.651785
    24  O   -0.439505
    25  H    0.183464
    26  C   -0.888507
    27  H    0.227780
    28  H    0.227780
    29  H    0.242439
 Sum of Mulliken charges =   0.00000

 Dipole moment (field-independent basis, Debye):
    X=              3.0248    Y=              2.4704    Z=              0.0003  Tot=              3.9055
 Quadrupole moment (field-independent basis, Debye-Ang):
   XX=            -98.1688   YY=            -90.9484   ZZ=           -105.0069
   XY=            -15.2689   XZ=             -0.0041   YZ=              0.0005

  Exact polarizability: 417.855   3.130 178.301  -0.017   0.004  97.599
 Approx polarizability: 571.827  16.707 307.346  -0.021   0.009 145.985

                      1                      2                      3
                      A                      A                      A
 Frequencies --     20.7037                33.0617                34.2088
 Red. masses --      3.7041                 6.0779                 5.3875
 Frc consts  --      0.0009                 0.0039                 0.0037
 IR Inten    --      0.9548                 0.0264                 0.2624

                      4                      5                      6
                      A                      A                      A
 Frequencies --     61.2895                96.5286               126.0340
 Red. masses --      4.0146                 5.9704                 5.4520
 Frc consts  --      0.0089                 0.0328                 0.0510
 IR Inten    --      3.2071                 1.8896                 1.0184

                      7                      8                      9
                      A                      A                      A
 Frequencies --    183.4392               189.0523               213.8445
 Red. masses --      1.0305                 5.9247                 6.2686
 Frc consts  --      0.0204                 0.1248                 0.1689
 IR Inten    --      0.1753                 0.1939                 0.4539

                     10                     11                     12
                      A                      A                      A
 Frequencies --    231.0034               317.0960               397.0232
 Red. masses --      4.8220                 5.5381                 4.3346
 Frc consts  --      0.1516                 0.3281                 0.4026
 IR Inten    --      6.0934                 0.3752                 3.0742

                     13                     14                     15
                      A                      A                      A
 Frequencies --    412.3498               413.8544               424.5501
 Red. masses --      2.9176                 2.9577                 4.2519
 Frc consts  --      0.2923                 0.2985                 0.4515
 IR Inten    --      0.0006                 0.0033                 0.0030

                     16                     17                     18
                      A                      A                      A
 Frequencies --    453.1857               492.8987               521.0506
 Red. masses --      6.9332                 5.3983                 3.4546
 Frc consts  --      0.8389                 0.7727                 0.5526
 IR Inten    --      8.5385                 0.9751                 7.9756

                     19                     20                     21
                      A                      A                      A
 Frequencies --    548.8046               576.5395               596.2510
 Red. masses --      7.3819                 6.1010                 3.0182
 Frc consts  --      1.3100                 1.1948                 0.6322
 IR Inten    --      0.2148                 4.3923                19.8893

                     22                     23                     24
                      A                      A                      A
 Frequencies --    611.1726               634.6029               650.2373
 Red. masses --      2.9790                 6.6028                 4.7743
 Frc consts  --      0.6556                 1.5667                 1.1893
 IR Inten    --      1.1402                 0.0005                34.4004

                     25                     26                     27
                      A                      A                      A
 Frequencies --    653.0144               700.0420               736.2114
 Red. masses --      7.1265                 1.8606                 3.9105
 Frc consts  --      1.7905                 0.5372                 1.2488
 IR Inten    --      4.8707                38.1357                 0.2725

                     28                     29                     30
                      A                      A                      A
 Frequencies --    758.9025               775.3442               844.7989
 Red. masses --      5.8444                 1.8808                 1.3651
 Frc consts  --      1.9832                 0.6662                 0.5740
 IR Inten    --      1.8321                43.4825                22.8077

                     31                     32                     33
                      A                      A                      A
 Frequencies --    853.5147               862.3268               862.8182
 Red. masses --      1.2484                 1.3994                 6.1907
 Frc consts  --      0.5358                 0.6131                 2.7154
 IR Inten    --      0.0207                29.2563                 0.4538

                     34                     35                     36
                      A                      A                      A
 Frequencies --    931.9593               968.4624               975.0200
 Red. masses --      1.4156                 2.2596                 1.3264
 Frc consts  --      0.7244                 1.2487                 0.7429
 IR Inten    --      2.9685                71.0372                 0.0000

                     37                     38                     39
                      A                      A                      A
 Frequencies --    980.4999              1001.0921              1003.1619
 Red. masses --      1.3656                 1.3337                 1.2842
 Frc consts  --      0.7735                 0.7875                 0.7614
 IR Inten    --      0.0001                 0.4221                 0.0198

                     40                     41                     42
                      A                      A                      A
 Frequencies --   1012.8222              1034.0822              1051.9449
 Red. masses --      6.2619                 3.0272                 2.2709
 Frc consts  --      3.7846                 1.9072                 1.4806
 IR Inten    --      0.2859                 2.0141                 4.0402

                     43                     44                     45
                      A                      A                      A
 Frequencies --   1053.1144              1096.9156              1109.7879
 Red. masses --      1.8467                 2.4584                 1.6222
 Frc consts  --      1.2067                 1.7428                 1.1771
 IR Inten    --      0.6922                 2.8759                 5.2795

                     46                     47                     48
                      A                      A                      A
 Frequencies --   1155.5664              1165.1744              1200.6264
 Red. masses --      1.3914                 3.2976                 1.1091
 Frc consts  --      1.0947                 2.6377                 0.9420
 IR Inten    --      4.9551                19.0278                 0.0172

                     49                     50                     51
                      A                      A                      A
 Frequencies --   1217.0787              1226.4422              1286.6522
 Red. masses --      1.1494                 1.1895                 3.5344
 Frc consts  --      1.0031                 1.0542                 3.4474
 IR Inten    --      0.0805                53.6316               370.6521

                     52                     53                     54
                      A                      A                      A
 Frequencies --   1326.1874              1331.7498              1346.8521
 Red. masses --      3.2408                 3.6416                 1.8110
 Frc consts  --      3.3583                 3.8053                 1.9356
 IR Inten    --      0.9856                 8.4964                 6.0171

                     55                     56                     57
                      A                      A                      A
 Frequencies --   1352.1222              1364.3329              1408.2348
 Red. masses --      3.2756                 1.7045                 1.3194
 Frc consts  --      3.5284                 1.8694                 1.5416
 IR Inten    --     15.2137                 0.5610                46.8806

                     58                     59                     60
                      A                      A                      A
 Frequencies --   1448.8051              1481.9916              1495.8545
 Red. masses --      2.7077                 2.1868                 1.0650
 Frc consts  --      3.3487                 2.8297                 1.4041
 IR Inten    --     30.3812                 4.5212                14.6615

                     61                     62                     63
                      A                      A                      A
 Frequencies --   1503.2443              1530.5071              1553.0081
 Red. masses --      1.0472                 2.1329                 2.5898
 Frc consts  --      1.3942                 2.9436                 3.6801
 IR Inten    --     12.1346                14.3364                 2.5704

                     64                     65                     66
                      A                      A                      A
 Frequencies --   1590.8462              1616.7511              1645.6407
 Red. masses --      5.8705                 4.9528                 5.2220
 Frc consts  --      8.7534                 7.6276                 8.3322
 IR Inten    --     24.2854                 1.3404                57.2143

                     67                     68                     69
                      A                      A                      A
 Frequencies --   1654.4534              1749.1056              2303.1841
 Red. masses --      5.4657                10.4548                11.9970
 Frc consts  --      8.8146                18.8450                37.4957
 IR Inten    --    174.6838               286.9919                45.1353

                     70                     71                     72
                      A                      A                      A
 Frequencies --   3046.8543              3105.7232              3162.0639
 Red. masses --      1.0383                 1.0999                 1.1012
 Frc consts  --      5.6790                 6.2506                 6.4870
 IR Inten    --      3.5734                 8.7040                16.4119

                     73                     74                     75
                      A                      A                      A
 Frequencies --   3181.1330              3189.6442              3198.6026
 Red. masses --      1.0857                 1.0886                 1.0878
 Frc consts  --      6.4732                 6.5253                 6.5575
 IR Inten    --      2.1976                 5.0180                 6.7948

                     76                     77                     78
                      A                      A                      A
 Frequencies --   3200.7571              3202.1400              3208.0096
 Red. masses --      1.0920                 1.0891                 1.0943
 Frc consts  --      6.5913                 6.5795                 6.6353
 IR Inten    --     19.2568                 3.3513                23.0310

                     79                     80                     81
                      A                      A                      A
 Frequencies --   3212.7242              3215.5648              3221.3206
 Red. masses --      1.0975                 1.0940                 1.0939
 Frc consts  --      6.6744                 6.6646                 6.6880
 IR Inten    --     15.0188                11.9654                 2.1115

 - Thermochemistry -
 -------------------
 Temperature   298.150 Kelvin.  Pressure   1.00000 Atm.
 Atom     1 has atomic number  6 and mass  12.00000

 Molecular mass:   220.08882 amu.
 Principal axes and moments of inertia in atomic units:
                           1         2         3
     Eigenvalues --   811.27534********************
           X            0.99997  -0.00730   0.00005
           Y            0.00730   0.99997  -0.00007
           Z           -0.00005   0.00007   1.00000
 This molecule is an asymmetric top.
 Rotational symmetry number  1.
 Warning -- assumption of classical behavior for rotation
           may cause significant error
 Rotational temperatures (Kelvin)      0.10676     0.00664     0.00625
 Rotational constants (GHZ):           2.22457     0.13829     0.13030
 Zero-point vibrational energy     601743.0 (Joules/Mol)
                                  143.82002 (Kcal/Mol)
 Warning -- explicit consideration of  22 degrees of freedom as
           vibrations may cause significant error
 Vibrational temperatures:     29.79    47.57    49.22    88.18   138.88
          (Kelvin)            181.33   263.93   272.00   307.67   332.36
                              456.23   571.23   593.28   595.44   610.83
                              652.03   709.17   749.68   789.61   829.51
                              857.87   879.34   913.05   935.55   939.54
                             1007.20  1059.24  1091.89  1115.55  1215.48
                             1228.02  1240.70  1241.40  1340.88  1393.40
                             1402.84  1410.72  1440.35  1443.33  1457.23
                             1487.81  1513.51  1515.20  1578.22  1596.74
                             1662.60  1676.43  1727.43  1751.10  1764.58
                             1851.21  1908.09  1916.09  1937.82  1945.40
                             1962.97  2026.14  2084.51  2132.26  2152.20
                             2162.83  2202.06  2234.43  2288.87  2326.14
                             2367.71  2380.39  2516.57  3313.77  4383.74
                             4468.44  4549.50  4576.94  4589.19  4602.08
                             4605.18  4607.17  4615.61  4622.39  4626.48
                             4634.76

 Zero-point correction=                           0.229192 (Hartree/Particle)
 Thermal correction to Energy=                    0.243757
 Thermal correction to Enthalpy=                  0.244701
 Thermal correction to Gibbs Free Energy=         0.184867
 Sum of electronic and zero-point Energies=           -691.927452
 Sum of electronic and thermal Energies=              -691.912887
 Sum of electronic and thermal Enthalpies=            -691.911943
 Sum of electronic and thermal Free Energies=         -691.971776

                     E (Thermal)             CV                S
                      KCal/Mol        Cal/Mol-Kelvin    Cal/Mol-Kelvin
 Total                  152.960             55.628            125.930
 Electronic               0.000              0.000              0.000
 Translational            0.889              2.981             42.069
 Rotational               0.889              2.981             33.350
 Vibrational            151.182             49.666             50.511
 Vibration     1          0.593              1.986              6.566
 Vibration     2          0.594              1.983              5.637
 Vibration     3          0.594              1.983              5.569
 Vibration     4          0.597              1.973              4.415
 Vibration     5          0.603              1.952              3.523
 Vibration     6          0.611              1.927              3.006
 Vibration     7          0.631              1.862              2.293
 Vibration     8          0.633              1.855              2.237
 Vibration     9          0.644              1.820              2.011
 Vibration    10          0.653              1.794              1.871
 Vibration    11          0.704              1.641              1.325
 Vibration    12          0.764              1.477              0.974
 Vibration    13          0.776              1.443              0.918
 Vibration    14          0.777              1.440              0.913
 Vibration    15          0.787              1.417              0.877
 Vibration    16          0.812              1.354              0.786
 Vibration    17          0.849              1.266              0.676
 Vibration    18          0.876              1.203              0.608
 Vibration    19          0.904              1.142              0.547
 Vibration    20          0.933              1.082              0.492
 Vibration    21          0.954              1.040              0.456
 Vibration    22          0.970              1.008              0.431

 Optimization completed.
    -- Stationary point found.
 Normal termination of Gaussian 16 at Sun Sep 17 14:59:00 2023.
