 Gaussian 16, Revision B.01,
 Gaussian 16:  EM64L-G16RevB.01 20-Dec-2017

 ----------------------------------------------------------------------
 # opt freq b3lyp/6-31+g(d) geom=connectivity empiricaldispersion=gd3 v
 olume
 ----------------------------------------------------------------------

 --------------
 ML molecule103
 --------------
 Symbolic Z-matrix:
 Charge =  0 Multiplicity = 1

 SCF Done:  E(RB3LYP) =  -554.483582289     A.U. after   15 cycles
 SCF Done:  E(RB3LYP) =  -554.516076247     A.U. after   16 cycles
 SCF Done:  E(RB3LYP) =  -554.544684216     A.U. after   16 cycles
 SCF Done:  E(RB3LYP) =  -554.564130583     A.U. after   13 cycles
 SCF Done:  E(RB3LYP) =  -554.564163172     A.U. after   16 cycles
 SCF Done:  E(RB3LYP) =  -554.574121654     A.U. after   15 cycles
 SCF Done:  E(RB3LYP) =  -554.578799291     A.U. after   14 cycles
 SCF Done:  E(RB3LYP) =  -554.581187721     A.U. after   15 cycles
 SCF Done:  E(RB3LYP) =  -554.582937730     A.U. after   15 cycles
 SCF Done:  E(RB3LYP) =  -554.583659859     A.U. after   15 cycles
 SCF Done:  E(RB3LYP) =  -554.583838700     A.U. after   14 cycles
 SCF Done:  E(RB3LYP) =  -554.583946990     A.U. after   13 cycles
 SCF Done:  E(RB3LYP) =  -554.583964765     A.U. after   12 cycles
 SCF Done:  E(RB3LYP) =  -554.583972075     A.U. after   12 cycles
 SCF Done:  E(RB3LYP) =  -554.583977182     A.U. after   12 cycles
 SCF Done:  E(RB3LYP) =  -554.583980210     A.U. after   11 cycles
 SCF Done:  E(RB3LYP) =  -554.583980592     A.U. after   11 cycles
 SCF Done:  E(RB3LYP) =  -554.583980651     A.U. after    9 cycles
 SCF Done:  E(RB3LYP) =  -554.583980653     A.U. after    9 cycles
 Optimization completed.
    -- Stationary point found.
 Normal termination of Gaussian 16 at Fri Sep 15 09:51:20 2023.

 ---------------------------------------------------------------------
 #N Geom=AllCheck Guess=TCheck SCRF=Check GenChk RB3LYP/6-31+G(d) Freq
 ---------------------------------------------------------------------

 Structure from the checkpoint file:  "molecule_103.chk"
 --------------
 ML molecule103
 --------------
 Charge =  0 Multiplicity = 1

                         Standard orientation:
 ---------------------------------------------------------------------
 Center     Atomic      Atomic             Coordinates (Angstroms)
 Number     Number       Type             X           Y           Z
 ---------------------------------------------------------------------
      1          6           0        3.685771    0.633827    0.158811
      2          6           0        2.629785    1.235063    0.849224
      3          6           0        1.358013    0.665752    0.775177
      4          6           0        1.205285   -0.485370    0.000024
      5          6           0        2.321908   -1.018590   -0.655701
      6          1           0        2.799587    2.130913    1.440201
      7          1           0        2.207109   -1.919527   -1.254464
      8          8           0        0.025326   -1.186009   -0.110385
      9          6           0       -1.187518   -0.512863   -0.087438
     10          6           0       -1.408928    0.634245   -0.855337
     11          6           0       -2.210503   -1.075225    0.676521
     12          6           0       -2.673365    1.227483   -0.841636
     13          6           0       -3.473359   -0.476831    0.675413
     14          1           0       -2.004765   -1.970635    1.255070
     15          6           0       -3.708638    0.677013   -0.078449
     16          1           0       -2.849961    2.118797   -1.438149
     17          1           0       -4.272273   -0.913340    1.269073
     18          1           0        0.510910    1.097702    1.298579
     19          1           0       -0.603319    1.049632   -1.452983
     20          1           0        4.687113    1.056842    0.197667
     21          1           0       -4.690626    1.141813   -0.074745
     22          7           0        3.540415   -0.475878   -0.579546
 ---------------------------------------------------------------------

 SCF Done:  E(RB3LYP) =  -554.583980653     A.U. after    1 cycles

 The electronic state is 1-A.
 Alpha  occ. eigenvalues --  -19.20911 -14.34587 -10.27140 -10.26794 -10.23111
 Alpha  occ. eigenvalues --  -10.22955 -10.22044 -10.21471 -10.21167 -10.21088
 Alpha  occ. eigenvalues --  -10.20926 -10.20691 -10.20567  -1.09719  -0.95146
 Alpha  occ. eigenvalues --   -0.87102  -0.81667  -0.78404  -0.76545  -0.74603
 Alpha  occ. eigenvalues --   -0.66147  -0.64807  -0.62765  -0.60353  -0.56151
 Alpha  occ. eigenvalues --   -0.52948  -0.51060  -0.50816  -0.48638  -0.46264
 Alpha  occ. eigenvalues --   -0.45374  -0.44141  -0.42707  -0.42182  -0.41979
 Alpha  occ. eigenvalues --   -0.39219  -0.38508  -0.37948  -0.36004  -0.35414
 Alpha  occ. eigenvalues --   -0.29681  -0.27078  -0.26773  -0.26726  -0.23871
 Alpha virt. eigenvalues --   -0.04392  -0.02876  -0.02305  -0.01212  -0.00176
 Alpha virt. eigenvalues --    0.01014   0.02045   0.02546   0.02984   0.03684
 Alpha virt. eigenvalues --    0.04354   0.04903   0.05209   0.05499   0.06496

 Mulliken charges:
               1
     1  C   -0.324221
     2  C   -0.015866
     3  C    0.244071
     4  C    0.068578
     5  C   -0.375543
     6  H    0.189916
     7  H    0.195854
     8  O   -0.358817
     9  C   -0.188835
    10  C    0.249300
    11  C   -0.108432
    12  C   -0.238571
    13  C   -0.289564
    14  H    0.194384
    15  C   -0.201475
    16  H    0.184940
    17  H    0.185248
    18  H    0.207559
    19  H    0.196082
    20  H    0.182617
    21  H    0.181358
    22  N   -0.178583
 Sum of Mulliken charges =   0.00000

 Dipole moment (field-independent basis, Debye):
    X=             -2.3331    Y=              1.9961    Z=              1.2152  Tot=              3.3022
 Quadrupole moment (field-independent basis, Debye-Ang):
   XX=            -77.6836   YY=            -73.0764   ZZ=            -76.1601
   XY=              4.2765   XZ=              2.3120   YZ=             -1.3651

  Exact polarizability: 189.690   0.936 120.679  -9.403  -0.305  99.102
 Approx polarizability: 263.986  -0.093 207.427 -22.739   0.548 160.907

                      1                      2                      3
                      A                      A                      A
 Frequencies --     22.2461                44.5242                89.7472
 Red. masses --      5.3077                 4.3587                 4.5584
 Frc consts  --      0.0015                 0.0051                 0.0216
 IR Inten    --      1.9452                 0.6577                 0.1702

                      4                      5                      6
                      A                      A                      A
 Frequencies --    216.9753               240.5940               311.6144
 Red. masses --      4.3077                 4.3816                 5.8532
 Frc consts  --      0.1195                 0.1494                 0.3349
 IR Inten    --      1.3009                 0.5876                 0.1108

                      7                      8                      9
                      A                      A                      A
 Frequencies --    386.1252               421.4480               425.6020
 Red. masses --      5.8353                 3.1182                 3.2206
 Frc consts  --      0.5126                 0.3263                 0.3437
 IR Inten    --      3.5989                 0.7841                 2.4918

                     10                     11                     12
                      A                      A                      A
 Frequencies --    485.8330               507.9928               581.0584
 Red. masses --      3.9507                 3.4379                 7.8700
 Frc consts  --      0.5494                 0.5227                 1.5655
 IR Inten    --      7.3110                12.6687                 1.9478

                     13                     14                     15
                      A                      A                      A
 Frequencies --    622.4282               630.4483               644.2379
 Red. masses --      5.5951                 7.4116                 6.2290
 Frc consts  --      1.2771                 1.7356                 1.5232
 IR Inten    --      1.3115                 4.4506                 1.1602

                     16                     17                     18
                      A                      A                      A
 Frequencies --    700.7398               718.2947               766.3669
 Red. masses --      2.1895                 2.3607                 1.9040
 Frc consts  --      0.6334                 0.7176                 0.6589
 IR Inten    --     29.2889                21.1403                43.7642

                     19                     20                     21
                      A                      A                      A
 Frequencies --    797.0865               822.5428               842.5431
 Red. masses --      2.6076                 1.9857                 1.2489
 Frc consts  --      0.9761                 0.7916                 0.5224
 IR Inten    --     27.8619                24.6361                 0.5005

                     22                     23                     24
                      A                      A                      A
 Frequencies --    885.3703               918.9492               927.5924
 Red. masses --      6.4923                 1.4786                 1.3206
 Frc consts  --      2.9985                 0.7357                 0.6695
 IR Inten    --     25.1956                 6.3550                 1.7332

                     25                     26                     27
                      A                      A                      A
 Frequencies --    952.7832               975.4233               989.6035
 Red. masses --      1.4361                 1.3502                 1.3526
 Frc consts  --      0.7681                 0.7569                 0.7805
 IR Inten    --      1.6371                 0.1604                 0.2536

                     28                     29                     30
                      A                      A                      A
 Frequencies --    995.8934              1016.0777              1033.2638
 Red. masses --      1.2676                 6.2411                 4.0955
 Frc consts  --      0.7407                 3.7963                 2.5762
 IR Inten    --      0.1206                 0.6383                12.5983

                     31                     32                     33
                      A                      A                      A
 Frequencies --   1048.7518              1067.3483              1107.0926
 Red. masses --      2.1021                 2.5030                 1.5225
 Frc consts  --      1.3622                 1.6800                 1.0994
 IR Inten    --      7.0432                 3.2516                 7.6425

                     34                     35                     36
                      A                      A                      A
 Frequencies --   1147.6376              1195.6971              1200.0947
 Red. masses --      1.4186                 1.1371                 1.2332
 Frc consts  --      1.1008                 0.9578                 1.0465
 IR Inten    --      9.7779                 4.0483                12.2922

                     37                     38                     39
                      A                      A                      A
 Frequencies --   1224.9145              1230.2645              1273.8773
 Red. masses --      1.8871                 1.8459                 4.7826
 Frc consts  --      1.6682                 1.6461                 4.5726
 IR Inten    --      2.7419                12.7581               415.4233

                     40                     41                     42
                      A                      A                      A
 Frequencies --   1308.1820              1339.4996              1361.9078
 Red. masses --      4.8148                 2.2490                 2.2963
 Frc consts  --      4.8547                 2.3775                 2.5094
 IR Inten    --    107.3226                 4.4631                 1.7514

                     43                     44                     45
                      A                      A                      A
 Frequencies --   1365.0888              1468.3808              1496.0275
 Red. masses --      1.3415                 2.4645                 2.2463
 Frc consts  --      1.4729                 3.1308                 2.9621
 IR Inten    --      8.7157                81.0360                 7.1367

                     46                     47                     48
                      A                      A                      A
 Frequencies --   1513.8794              1532.8961              1622.8456
 Red. masses --      2.2299                 2.2337                 5.5968
 Frc consts  --      3.0111                 3.0925                 8.6844
 IR Inten    --     88.1370                86.3548                17.7374

                     49                     50                     51
                      A                      A                      A
 Frequencies --   1629.5990              1641.8144              1652.1666
 Red. masses --      5.6583                 5.9122                 5.7346
 Frc consts  --      8.8531                 9.3896                 9.2228
 IR Inten    --     74.5861                 8.3632                28.8131

                     52                     53                     54
                      A                      A                      A
 Frequencies --   3180.8268              3183.0647              3187.9317
 Red. masses --      1.0877                 1.0857                 1.0913
 Frc consts  --      6.4837                 6.4814                 6.5348
 IR Inten    --     11.2003                 1.2809                14.8660

                     55                     56                     57
                      A                      A                      A
 Frequencies --   3191.8881              3200.8989              3204.8138
 Red. masses --      1.0893                 1.0928                 1.0924
 Frc consts  --      6.5389                 6.5966                 6.6108
 IR Inten    --     10.6806                24.2677                25.8086

                     58                     59                     60
                      A                      A                      A
 Frequencies --   3212.5095              3216.1364              3218.1909
 Red. masses --      1.0942                 1.0964                 1.0951
 Frc consts  --      6.6535                 6.6816                 6.6823
 IR Inten    --      8.9106                 3.1186                 3.9082

 - Thermochemistry -
 -------------------
 Temperature   298.150 Kelvin.  Pressure   1.00000 Atm.
 Atom     1 has atomic number  6 and mass  12.00000

 Molecular mass:   171.06841 amu.
 Principal axes and moments of inertia in atomic units:
                           1         2         3
     Eigenvalues --   740.174714201.369504459.78394
           X            1.00000   0.00305   0.00016
           Y           -0.00305   0.99987  -0.01578
           Z           -0.00021   0.01578   0.99988
 This molecule is an asymmetric top.
 Rotational symmetry number  1.
 Warning -- assumption of classical behavior for rotation
           may cause significant error
 Rotational temperatures (Kelvin)      0.11702     0.02062     0.01942
 Rotational constants (GHZ):           2.43826     0.42956     0.40467
 Zero-point vibrational energy     455763.1 (Joules/Mol)
                                  108.92998 (Kcal/Mol)
 Warning -- explicit consideration of  12 degrees of freedom as
           vibrations may cause significant error
 Vibrational temperatures:     32.01    64.06   129.13   312.18   346.16
          (Kelvin)            448.34   555.55   606.37   612.35   699.01
                              730.89   836.01   895.54   907.07   926.91
                             1008.21  1033.47  1102.63  1146.83  1183.46
                             1212.23  1273.85  1322.16  1334.60  1370.84
                             1403.42  1423.82  1432.87  1461.91  1486.64
                             1508.92  1535.68  1592.86  1651.19  1720.34
                             1726.67  1762.38  1770.08  1832.83  1882.18
                             1927.24  1959.48  1964.06  2112.67  2152.45
                             2178.13  2205.50  2334.91  2344.63  2362.20
                             2377.10  4576.50  4579.72  4586.72  4592.42
                             4605.38  4611.01  4622.08  4627.30  4630.26

 Zero-point correction=                           0.173591 (Hartree/Particle)
 Thermal correction to Energy=                    0.183466
 Thermal correction to Enthalpy=                  0.184410
 Thermal correction to Gibbs Free Energy=         0.136244
 Sum of electronic and zero-point Energies=           -554.410390
 Sum of electronic and thermal Energies=              -554.400515
 Sum of electronic and thermal Enthalpies=            -554.399570
 Sum of electronic and thermal Free Energies=         -554.447737

                     E (Thermal)             CV                S
                      KCal/Mol        Cal/Mol-Kelvin    Cal/Mol-Kelvin
 Total                  115.127             38.992            101.375
 Electronic               0.000              0.000              0.000
 Translational            0.889              2.981             41.318
 Rotational               0.889              2.981             31.006
 Vibrational            113.349             33.030             29.050
 Vibration     1          0.593              1.985              6.423
 Vibration     2          0.595              1.980              5.047
 Vibration     3          0.602              1.956              3.666
 Vibration     4          0.646              1.815              1.984
 Vibration     5          0.658              1.778              1.798
 Vibration     6          0.700              1.652              1.354
 Vibration     7          0.755              1.500              1.015
 Vibration     8          0.784              1.424              0.887
 Vibration     9          0.787              1.415              0.873
 Vibration    10          0.842              1.281              0.695
 Vibration    11          0.863              1.232              0.638
 Vibration    12          0.938              1.072              0.483

 Optimization completed.
    -- Stationary point found.
 Normal termination of Gaussian 16 at Fri Sep 15 09:54:05 2023.
