 Gaussian 16, Revision B.01,
 Gaussian 16:  EM64L-G16RevB.01 20-Dec-2017

 ----------------------------------------------------------------------
 # opt freq b3lyp/6-31+g(d) geom=connectivity empiricaldispersion=gd3 v
 olume
 ----------------------------------------------------------------------

 -------------------
 Title Card Required
 -------------------
 Symbolic Z-matrix:
 Charge =  0 Multiplicity = 1

 SCF Done:  E(RB3LYP) =  -693.344905571     A.U. after   15 cycles
 SCF Done:  E(RB3LYP) =  -693.344905681     A.U. after   10 cycles
 SCF Done:  E(RB3LYP) =  -693.344905924     A.U. after    9 cycles
 SCF Done:  E(RB3LYP) =  -693.344905982     A.U. after    8 cycles
 SCF Done:  E(RB3LYP) =  -693.344906028     A.U. after    8 cycles
 SCF Done:  E(RB3LYP) =  -693.340814134     A.U. after   16 cycles
 SCF Done:  E(RB3LYP) =  -693.344857421     A.U. after   15 cycles
 SCF Done:  E(RB3LYP) =  -693.344942022     A.U. after   12 cycles
 SCF Done:  E(RB3LYP) =  -693.343510345     A.U. after   16 cycles
 SCF Done:  E(RB3LYP) =  -693.344952804     A.U. after   11 cycles
 SCF Done:  E(RB3LYP) =  -693.349195683     A.U. after   14 cycles
 SCF Done:  E(RB3LYP) =  -693.348800957     A.U. after   13 cycles
 SCF Done:  E(RB3LYP) =  -693.349674810     A.U. after   11 cycles
 SCF Done:  E(RB3LYP) =  -693.350005902     A.U. after   12 cycles
 SCF Done:  E(RB3LYP) =  -693.350011330     A.U. after   11 cycles
 SCF Done:  E(RB3LYP) =  -693.350012116     A.U. after   10 cycles
 SCF Done:  E(RB3LYP) =  -693.350012367     A.U. after   10 cycles
 SCF Done:  E(RB3LYP) =  -693.350012430     A.U. after    9 cycles
 SCF Done:  E(RB3LYP) =  -693.350012443     A.U. after    8 cycles
 Optimization completed.
    -- Stationary point found.
 Normal termination of Gaussian 16 at Sun Sep 17 15:34:14 2023.

 ---------------------------------------------------------------------
 #N Geom=AllCheck Guess=TCheck SCRF=Check GenChk RB3LYP/6-31+G(d) Freq
 ---------------------------------------------------------------------

 Structure from the checkpoint file:  "MOLECULE_5.chk"
 -------------------
 Title Card Required
 -------------------
 Charge =  0 Multiplicity = 1

                         Standard orientation:
 ---------------------------------------------------------------------
 Center     Atomic      Atomic             Coordinates (Angstroms)
 Number     Number       Type             X           Y           Z
 ---------------------------------------------------------------------
      1          6           0        3.638503    1.409920   -0.000456
      2          6           0        2.252444    1.363348    0.000697
      3          6           0        1.566754    0.126709    0.000665
      4          6           0        2.331335   -1.053878   -0.000568
      5          6           0        3.726826   -1.015162   -0.001767
      6          6           0        4.387555    0.221426   -0.001719
      7          1           0        4.168814    2.357468   -0.000359
      8          1           0        1.680393    2.286561    0.001673
      9          1           0        1.823673   -2.014140   -0.000584
     10          1           0        4.280333   -1.947310   -0.002721
     11          6           0        0.143523    0.079898    0.001767
     12          6           0       -1.073866    0.043918    0.003128
     13          6           0       -2.497927    0.001254    0.004060
     14          6           0       -3.185163   -1.229979    0.008093
     15          6           0       -3.257391    1.189364    0.004998
     16          6           0       -4.577737   -1.263707    0.011329
     17          1           0       -2.615892   -2.155198    0.012449
     18          6           0       -4.649482    1.139912    0.008193
     19          1           0       -2.744315    2.146878    0.006921
     20          6           0       -5.336976   -0.083508    0.008493
     21          1           0       -5.085969   -2.225940    0.017756
     22          1           0       -5.214211    2.070116    0.012109
     23          6           0       -6.846732   -0.128541   -0.024598
     24          1           0       -7.217414   -0.138037   -1.058958
     25          1           0       -7.232823   -1.027865    0.468395
     26          1           0       -7.285708    0.744747    0.470963
     27          8           0        5.743744    0.377292   -0.002841
     28          6           0        6.564250   -0.785075   -0.004191
     29          1           0        6.391480   -1.394496   -0.901507
     30          1           0        7.593122   -0.421078   -0.004950
     31          1           0        6.393072   -1.395429    0.892797
 ---------------------------------------------------------------------

 SCF Done:  E(RB3LYP) =  -693.350012443     A.U. after    1 cycles

 The electronic state is 1-A.
 Alpha  occ. eigenvalues --  -19.19509 -10.26175 -10.25130 -10.21730 -10.21615
 Alpha  occ. eigenvalues --  -10.20687 -10.20589 -10.20423 -10.20184 -10.19959
 Alpha  occ. eigenvalues --  -10.19951 -10.19711 -10.19583 -10.19579 -10.19138
 Alpha  occ. eigenvalues --  -10.19076 -10.18895  -1.07783  -0.86786  -0.86546
 Alpha  occ. eigenvalues --   -0.79954  -0.78196  -0.76072  -0.75148  -0.73908
 Alpha  occ. eigenvalues --   -0.71213  -0.68533  -0.62454  -0.61600  -0.61368
 Alpha  occ. eigenvalues --   -0.59589  -0.55174  -0.53869  -0.51493  -0.49414
 Alpha  occ. eigenvalues --   -0.47940  -0.47123  -0.46721  -0.45697  -0.43511
 Alpha  occ. eigenvalues --   -0.43119  -0.42727  -0.42555  -0.42533  -0.39778
 Alpha  occ. eigenvalues --   -0.39389  -0.39342  -0.37371  -0.37332  -0.35826
 Alpha  occ. eigenvalues --   -0.34781  -0.34607  -0.33905  -0.30081  -0.26959
 Alpha  occ. eigenvalues --   -0.26440  -0.25856  -0.25327  -0.20344
 Alpha virt. eigenvalues --   -0.04822  -0.01850  -0.01502   0.00030   0.00169
 Alpha virt. eigenvalues --    0.00673   0.01534   0.02025   0.02567   0.02943
 Alpha virt. eigenvalues --    0.03655   0.04340   0.04577   0.04761   0.04953

 Mulliken charges:
               1
     1  C   -0.184850
     2  C   -0.408200
     3  C    0.253071
     4  C   -1.003476
     5  C    0.704864
     6  C   -0.056197
     7  H    0.193415
     8  H    0.194536
     9  H    0.193255
    10  H    0.178266
    11  C   -0.014073
    12  C   -0.042742
    13  C    0.136902
    14  C   -0.218527
    15  C   -0.037222
    16  C   -0.397939
    17  H    0.190431
    18  C   -0.480909
    19  H    0.190656
    20  C    0.443074
    21  H    0.175208
    22  H    0.175574
    23  C   -0.749140
    24  H    0.227391
    25  H    0.208762
    26  H    0.208886
    27  O   -0.375803
    28  C   -0.325217
    29  H    0.205003
    30  H    0.209985
    31  H    0.205015
 Sum of Mulliken charges =   0.00000

 Dipole moment (field-independent basis, Debye):
    X=              0.5918    Y=             -1.2807    Z=             -0.0463  Tot=              1.4115
 Quadrupole moment (field-independent basis, Debye-Ang):
   XX=            -72.3668   YY=            -91.0686   ZZ=           -107.1068
   XY=             -8.4165   XZ=              0.2700   YZ=              0.0047

  Exact polarizability: 412.986  -1.015 175.209   0.685  -0.004 104.115
 Approx polarizability: 544.750   4.170 296.775   0.787  -0.029 154.636

                      1                      2                      3
                      A                      A                      A
 Frequencies --     18.1550                24.0519                31.4167
 Red. masses --      1.9290                 1.3768                 4.9027
 Frc consts  --      0.0004                 0.0005                 0.0029
 IR Inten    --      0.4205                 0.4436                 0.8404

                      4                      5                      6
                      A                      A                      A
 Frequencies --     32.6322                74.3760               111.7053
 Red. masses --      4.5067                 3.7371                 4.2117
 Frc consts  --      0.0028                 0.0122                 0.0310
 IR Inten    --      0.5674                 0.3624                 3.2723

                      7                      8                      9
                      A                      A                      A
 Frequencies --    123.8235               184.4305               210.9888
 Red. masses --      5.1590                 4.1355                 5.4634
 Frc consts  --      0.0466                 0.0829                 0.1433
 IR Inten    --      0.1172                 1.0005                 0.0258

                     10                     11                     12
                      A                      A                      A
 Frequencies --    250.7435               268.0200               293.1771
 Red. masses --      1.7340                 3.7546                 2.0143
 Frc consts  --      0.0642                 0.1589                 0.1020
 IR Inten    --      0.2917                 2.9505                 2.6600

                     13                     14                     15
                      A                      A                      A
 Frequencies --    343.6124               391.3988               413.5834
 Red. masses --      2.8435                 5.0210                 2.9591
 Frc consts  --      0.1978                 0.4532                 0.2982
 IR Inten    --      0.0757                 2.4958                 0.0026

                     16                     17                     18
                      A                      A                      A
 Frequencies --    423.5943               436.2313               469.1977
 Red. masses --      3.0552                 5.7624                 4.7370
 Frc consts  --      0.3230                 0.6461                 0.6144
 IR Inten    --      0.0818                 2.4510                 0.6513

                     19                     20                     21
                      A                      A                      A
 Frequencies --    479.3877               520.2358               538.1867
 Red. masses --      6.3409                 4.9948                 2.5821
 Frc consts  --      0.8586                 0.7965                 0.4406
 IR Inten    --     12.3765                15.3595                29.2037

                     22                     23                     24
                      A                      A                      A
 Frequencies --    552.8353               556.9463               625.6095
 Red. masses --      6.7203                 3.2778                 5.3191
 Frc consts  --      1.2101                 0.5990                 1.2266
 IR Inten    --      0.9753                 0.5570                10.0657

                     25                     26                     27
                      A                      A                      A
 Frequencies --    655.5222               660.6125               716.6301
 Red. masses --      7.0239                 7.1147                 3.4554
 Frc consts  --      1.7783                 1.8294                 1.0455
 IR Inten    --      1.6528                 0.3417                 1.1236

                     28                     29                     30
                      A                      A                      A
 Frequencies --    721.1941               762.4697               817.2746
 Red. masses --      3.8455                 4.9445                 5.2507
 Frc consts  --      1.1784                 1.6936                 2.0664
 IR Inten    --      0.6979                 4.9789                 5.8715

                     31                     32                     33
                      A                      A                      A
 Frequencies --    819.3579               831.8989               846.2485
 Red. masses --      1.2849                 1.5098                 1.6542
 Frc consts  --      0.5082                 0.6156                 0.6980
 IR Inten    --      6.5306                37.4969                68.1668

                     34                     35                     36
                      A                      A                      A
 Frequencies --    846.9455               870.3064               949.3884
 Red. masses --      1.2504                 6.4254                 1.3266
 Frc consts  --      0.5285                 2.8675                 0.7045
 IR Inten    --      0.1897                 0.1649                 0.1500

                     37                     38                     39
                      A                      A                      A
 Frequencies --    964.9019               969.3826               973.8927
 Red. masses --      1.2916                 1.3216                 1.3560
 Frc consts  --      0.7085                 0.7317                 0.7578
 IR Inten    --      0.8355                 0.0293                 0.0009

                     40                     41                     42
                      A                      A                      A
 Frequencies --   1020.5412              1028.2573              1038.5830
 Red. masses --      1.4048                 2.8307                 2.8985
 Frc consts  --      0.8620                 1.7634                 1.8420
 IR Inten    --      0.0404                 0.2463                 1.1561

                     43                     44                     45
                      A                      A                      A
 Frequencies --   1065.4573              1070.1416              1147.1907
 Red. masses --      6.2484                 1.5278                 1.3560
 Frc consts  --      4.1792                 1.0309                 1.0515
 IR Inten    --     76.7717                14.9714                 8.8378

                     46                     47                     48
                      A                      A                      A
 Frequencies --   1153.8571              1162.9700              1180.5869
 Red. masses --      1.3473                 3.8821                 1.2699
 Frc consts  --      1.0568                 3.0935                 1.0428
 IR Inten    --      6.6605                16.5733                 1.0294

                     49                     50                     51
                      A                      A                      A
 Frequencies --   1212.8117              1217.6020              1226.1242
 Red. masses --      1.2753                 1.2826                 1.1633
 Frc consts  --      1.1052                 1.1204                 1.0304
 IR Inten    --      9.5960                78.3297                 0.1004

                     52                     53                     54
                      A                      A                      A
 Frequencies --   1237.7467              1290.6784              1322.5287
 Red. masses --      3.0101                 4.1901                 4.3833
 Frc consts  --      2.7170                 4.1125                 4.5171
 IR Inten    --      2.2759               373.6758                 2.9708

                     55                     56                     57
                      A                      A                      A
 Frequencies --   1331.3254              1344.0280              1349.0389
 Red. masses --      2.6893                 1.8349                 1.4885
 Frc consts  --      2.8084                 1.9528                 1.5960
 IR Inten    --     50.9874                33.2191                 0.0589

                     58                     59                     60
                      A                      A                      A
 Frequencies --   1354.5152              1438.3875              1447.9806
 Red. masses --      4.4383                 1.2344                 2.5131
 Frc consts  --      4.7977                 1.5047                 3.1045
 IR Inten    --     17.2224                 0.8056                 1.0219

                     61                     62                     63
                      A                      A                      A
 Frequencies --   1457.3816              1493.3364              1510.8528
 Red. masses --      2.9843                 1.1820                 1.1061
 Frc consts  --      3.7346                 1.5530                 1.4876
 IR Inten    --      3.5997                23.0040                 9.1721

                     64                     65                     66
                      A                      A                      A
 Frequencies --   1512.6170              1518.6601              1526.4696
 Red. masses --      1.0521                 1.0459                 1.0639
 Frc consts  --      1.4183                 1.4213                 1.4606
 IR Inten    --      6.9578                 8.2085                57.3655

                     67                     68                     69
                      A                      A                      A
 Frequencies --   1544.8475              1562.9752              1600.2352
 Red. masses --      2.2823                 2.7288                 5.1206
 Frc consts  --      3.2091                 3.9275                 7.7257
 IR Inten    --     19.5136               226.3503                 2.2334

                     70                     71                     72
                      A                      A                      A
 Frequencies --   1604.8358              1654.9233              1664.3736
 Red. masses --      6.3237                 5.4351                 5.6470
 Frc consts  --      9.5958                 8.7703                 9.2165
 IR Inten    --     15.1933                71.4262                41.0960

                     73                     74                     75
                      A                      A                      A
 Frequencies --   2302.9254              3021.4217              3031.7749
 Red. masses --     11.9973                 1.0343                 1.0406
 Frc consts  --     37.4880                 5.5633                 5.6356
 IR Inten    --     12.5045                81.5855                52.4357

                     76                     77                     78
                      A                      A                      A
 Frequencies --   3082.4872              3087.4947              3113.6656
 Red. masses --      1.1069                 1.0952                 1.1026
 Frc consts  --      6.1966                 6.1511                 6.2983
 IR Inten    --     39.6089                22.4435                17.4182

                     79                     80                     81
                      A                      A                      A
 Frequencies --   3156.5822              3171.8662              3172.6208
 Red. masses --      1.0998                 1.0886                 1.0886
 Frc consts  --      6.4565                 6.4528                 6.4561
 IR Inten    --     26.9990                14.8282                32.5510

                     82                     83                     84
                      A                      A                      A
 Frequencies --   3197.7604              3198.7687              3201.8275
 Red. masses --      1.0882                 1.0892                 1.0930
 Frc consts  --      6.5560                 6.5664                 6.6021
 IR Inten    --     10.4654                 4.0305                22.8575

                     85                     86                     87
                      A                      A                      A
 Frequencies --   3203.6136              3214.6162              3223.9939
 Red. masses --      1.0939                 1.0949                 1.0925
 Frc consts  --      6.6148                 6.6666                 6.6903
 IR Inten    --      0.1751                 9.1511                14.0593

 - Thermochemistry -
 -------------------
 Temperature   298.150 Kelvin.  Pressure   1.00000 Atm.
 Atom     1 has atomic number  6 and mass  12.00000

 Molecular mass:   222.10447 amu.
 Principal axes and moments of inertia in atomic units:
                           1         2         3
     Eigenvalues --   710.06279********************
           X            0.99999  -0.00427   0.00013
           Y            0.00427   0.99999   0.00006
           Z           -0.00013  -0.00006   1.00000
 This molecule is an asymmetric top.
 Rotational symmetry number  1.
 Warning -- assumption of classical behavior for rotation
           may cause significant error
 Rotational temperatures (Kelvin)      0.12198     0.00618     0.00589
 Rotational constants (GHZ):           2.54166     0.12884     0.12281
 Zero-point vibrational energy     660659.5 (Joules/Mol)
                                  157.90141 (Kcal/Mol)
 Warning -- explicit consideration of  23 degrees of freedom as
           vibrations may cause significant error
 Vibrational temperatures:     26.12    34.61    45.20    46.95   107.01
          (Kelvin)            160.72   178.15   265.35   303.57   360.76
                              385.62   421.82   494.38   563.14   595.05
                              609.46   627.64   675.07   689.73   748.50
                              774.33   795.41   801.32   900.11   943.15
                              950.47  1031.07  1037.64  1097.02  1175.88
                             1178.87  1196.92  1217.56  1218.57  1252.18
                             1365.96  1388.28  1394.73  1401.21  1468.33
                             1479.43  1494.29  1532.96  1539.70  1650.55
                             1660.14  1673.25  1698.60  1744.97  1751.86
                             1764.12  1780.84  1857.00  1902.82  1915.48
                             1933.76  1940.97  1948.85  2069.52  2083.32
                             2096.85  2148.58  2173.78  2176.32  2185.01
                             2196.25  2222.69  2248.77  2302.38  2309.00
                             2381.07  2394.66  3313.40  4347.15  4362.05
                             4435.01  4442.22  4479.87  4541.62  4563.61
                             4564.69  4600.86  4602.31  4606.72  4609.29
                             4625.12  4638.61

 Zero-point correction=                           0.251632 (Hartree/Particle)
 Thermal correction to Energy=                    0.267211
 Thermal correction to Enthalpy=                  0.268156
 Thermal correction to Gibbs Free Energy=         0.205274
 Sum of electronic and zero-point Energies=           -693.098381
 Sum of electronic and thermal Energies=              -693.082801
 Sum of electronic and thermal Enthalpies=            -693.081857
 Sum of electronic and thermal Free Energies=         -693.144739

                     E (Thermal)             CV                S
                      KCal/Mol        Cal/Mol-Kelvin    Cal/Mol-Kelvin
 Total                  167.678             58.573            132.346
 Electronic               0.000              0.000              0.000
 Translational            0.889              2.981             42.097
 Rotational               0.889              2.981             33.346
 Vibrational            165.900             52.611             56.903
 Vibration     1          0.593              1.986              6.826
 Vibration     2          0.593              1.985              6.268
 Vibration     3          0.594              1.983              5.738
 Vibration     4          0.594              1.983              5.663
 Vibration     5          0.599              1.966              4.034
 Vibration     6          0.607              1.940              3.239
 Vibration     7          0.610              1.929              3.040
 Vibration     8          0.631              1.861              2.283
 Vibration     9          0.643              1.824              2.035
 Vibration    10          0.663              1.762              1.725
 Vibration    11          0.673              1.732              1.609
 Vibration    12          0.688              1.686              1.456
 Vibration    13          0.722              1.588              1.195
 Vibration    14          0.759              1.489              0.995
 Vibration    15          0.777              1.441              0.914
 Vibration    16          0.786              1.419              0.880
 Vibration    17          0.797              1.391              0.839
 Vibration    18          0.826              1.318              0.740
 Vibration    19          0.836              1.296              0.712
 Vibration    20          0.875              1.205              0.609
 Vibration    21          0.893              1.166              0.569
 Vibration    22          0.908              1.133              0.538
 Vibration    23          0.912              1.125              0.530

                           ! Non-Optimized Parameters !
 Normal termination of Gaussian 16 at Sun Sep 17 15:39:40 2023.
