 Gaussian 16, Revision B.01,
 Gaussian 16:  EM64L-G16RevB.01 20-Dec-2017

 ---------------------------------------------------------
 # opt freq b3lyp/6-31+g(d) empiricaldispersion=gd3 volume
 ---------------------------------------------------------

 -------------------
 Title Card Required
 -------------------
 Symbolic Z-matrix:
 Charge =  0 Multiplicity = 1

 SCF Done:  E(RB3LYP) =  -678.060304797     A.U. after   15 cycles
 SCF Done:  E(RB3LYP) =  -678.061015792     A.U. after   11 cycles
 SCF Done:  E(RB3LYP) =  -678.061075694     A.U. after   10 cycles
 SCF Done:  E(RB3LYP) =  -678.061078325     A.U. after   10 cycles
 SCF Done:  E(RB3LYP) =  -678.061078842     A.U. after    9 cycles
 SCF Done:  E(RB3LYP) =  -678.061078877     A.U. after    9 cycles
 SCF Done:  E(RB3LYP) =  -678.061078895     A.U. after    8 cycles
 Optimization completed.
    -- Stationary point found.
 Normal termination of Gaussian 16 at Mon Sep 18 03:56:08 2023.

 ---------------------------------------------------------------------
 #N Geom=AllCheck Guess=TCheck SCRF=Check GenChk RB3LYP/6-31+G(d) Freq
 ---------------------------------------------------------------------

 Structure from the checkpoint file:  "molecule_25.chk"
 -------------------
 Title Card Required
 -------------------
 Charge =  0 Multiplicity = 1

                         Standard orientation:
 ---------------------------------------------------------------------
 Center     Atomic      Atomic             Coordinates (Angstroms)
 Number     Number       Type             X           Y           Z
 ---------------------------------------------------------------------
      1          6           0       -4.177343    1.218881    0.002323
      2          6           0       -2.783745    1.214261    0.000849
      3          6           0       -2.064624    0.000010    0.000107
      4          6           0       -2.783727   -1.214254    0.000903
      5          6           0       -4.177324   -1.218895    0.002376
      6          6           0       -4.846568   -0.000012    0.003066
      7          1           0       -4.743956    2.144485    0.002890
      8          1           0       -2.239705    2.153793    0.000252
      9          1           0       -2.239672   -2.153776    0.000348
     10          1           0       -4.743924   -2.144506    0.002985
     11          6           0       -0.639859    0.000020   -0.001371
     12          6           0        0.577553    0.000028   -0.003146
     13          6           0        2.002450    0.000021   -0.004084
     14          6           0        2.724742    1.210733   -0.006704
     15          6           0        2.724729   -1.210705   -0.006768
     16          6           0        4.117562    1.202785   -0.010264
     17          1           0        2.183162    2.152370   -0.009580
     18          6           0        4.117542   -1.202777   -0.010328
     19          1           0        2.183133   -2.152333   -0.009695
     20          6           0        4.840704    0.000002   -0.009240
     21          1           0        4.654552    2.149117   -0.015481
     22          1           0        4.654523   -2.149115   -0.015598
     23          6           0        6.350949   -0.000040    0.023381
     24          1           0        6.720932   -0.000862    1.057945
     25          1           0        6.763551   -0.886442   -0.471318
     26          1           0        6.763580    0.887111   -0.469942
     27          9           0       -6.206046   -0.000022    0.004510
 ---------------------------------------------------------------------

 SCF Done:  E(RB3LYP) =  -678.061078895     A.U. after    1 cycles

 The electronic state is 1-A.
 Alpha  occ. eigenvalues --  -24.72882 -10.28873 -10.23068 -10.22361 -10.21724
 Alpha  occ. eigenvalues --  -10.21723 -10.21345 -10.21345 -10.21288 -10.20593
 Alpha  occ. eigenvalues --  -10.20592 -10.20136 -10.20135 -10.20039 -10.19811
 Alpha  occ. eigenvalues --  -10.19503  -1.23303  -0.88186  -0.87259  -0.80687
 Alpha  occ. eigenvalues --   -0.78741  -0.77298  -0.75745  -0.73876  -0.69683
 Alpha  occ. eigenvalues --   -0.63985  -0.63914  -0.61965  -0.60476  -0.56074
 Alpha  occ. eigenvalues --   -0.54931  -0.52658  -0.50477  -0.47706  -0.47480
 Alpha  occ. eigenvalues --   -0.47312  -0.46215  -0.44705  -0.43723  -0.43149
 Alpha  occ. eigenvalues --   -0.43003  -0.41632  -0.40931  -0.39855  -0.39096
 Alpha  occ. eigenvalues --   -0.37536  -0.36378  -0.36349  -0.35350  -0.31910
 Alpha  occ. eigenvalues --   -0.27853  -0.27611  -0.27232  -0.26435  -0.21738
 Alpha virt. eigenvalues --   -0.05814  -0.03045  -0.02079  -0.00799   0.00036
 Alpha virt. eigenvalues --    0.00780   0.01708   0.02039   0.02589   0.03196
 Alpha virt. eigenvalues --    0.03949   0.04357   0.04504   0.04570   0.05401

 Mulliken charges:
               1
     1  C    0.091730
     2  C   -0.514625
     3  C    0.350686
     4  C   -0.514634
     5  C    0.091722
     6  C    0.048943
     7  H    0.202593
     8  H    0.200221
     9  H    0.200221
    10  H    0.202593
    11  C   -0.070499
    12  C    0.024766
    13  C   -0.044666
    14  C   -0.042779
    15  C   -0.042272
    16  C   -0.474148
    17  H    0.191512
    18  C   -0.472637
    19  H    0.191513
    20  C    0.482969
    21  H    0.177472
    22  H    0.177476
    23  C   -0.760409
    24  H    0.228856
    25  H    0.209894
    26  H    0.209866
    27  F   -0.346362
 Sum of Mulliken charges =   0.00000

 Dipole moment (field-independent basis, Debye):
    X=              2.4860    Y=             -0.0001    Z=              0.0441  Tot=              2.4864
 Quadrupole moment (field-independent basis, Debye-Ang):
   XX=            -89.8776   YY=            -81.7273   ZZ=            -98.8678
   XY=             -0.0008   XZ=              0.2774   YZ=              0.0000

  Exact polarizability: 361.635  -0.002 163.003   0.638   0.000  91.447
 Approx polarizability: 498.618  -0.002 277.143   0.721   0.000 135.612

                      1                      2                      3
                      A                      A                      A
 Frequencies --     17.5150                23.4234                35.1589
 Red. masses --      1.6421                 1.5834                 6.3217
 Frc consts  --      0.0003                 0.0005                 0.0046
 IR Inten    --      0.1313                 0.2058                 0.1960

                      4                      5                      6
                      A                      A                      A
 Frequencies --     35.5038                94.1192               131.4981
 Red. masses --      5.3224                 5.6947                 5.7134
 Frc consts  --      0.0040                 0.0297                 0.0582
 IR Inten    --      0.0601                 0.7556                 0.2329

                      7                      8                      9
                      A                      A                      A
 Frequencies --    187.2996               225.3488               274.3480
 Red. masses --      5.7249                 7.1422                 5.8670
 Frc consts  --      0.1183                 0.2137                 0.2602
 IR Inten    --      0.4444                 0.3042                 2.1031

                     10                     11                     12
                      A                      A                      A
 Frequencies --    341.9934               388.8064               388.8485
 Red. masses --      2.9525                 5.4010                 7.1042
 Frc consts  --      0.2035                 0.4810                 0.6329
 IR Inten    --      0.1262                 2.9724                 4.1510

                     13                     14                     15
                      A                      A                      A
 Frequencies --    413.0387               422.7340               466.2198
 Red. masses --      2.9537                 3.0429                 4.4871
 Frc consts  --      0.2969                 0.3204                 0.5746
 IR Inten    --      0.0078                 0.0000                 2.1415

                     16                     17                     18
                      A                      A                      A
 Frequencies --    472.8436               488.9228               533.9806
 Red. masses --      7.7320                 5.6345                 2.6445
 Frc consts  --      1.0185                 0.7936                 0.4443
 IR Inten    --     22.2451                 0.6055                30.3784

                     19                     20                     21
                      A                      A                      A
 Frequencies --    549.3006               560.1960               622.4599
 Red. masses --      7.5960                 3.5711                 5.8046
 Frc consts  --      1.3504                 0.6603                 1.3251
 IR Inten    --      0.0536                 0.7007                10.8870

                     22                     23                     24
                      A                      A                      A
 Frequencies --    652.5701               659.9335               713.4331
 Red. masses --      7.2667                 7.1189                 3.7499
 Frc consts  --      1.8232                 1.8267                 1.1245
 IR Inten    --      0.1941                 0.0486                 0.1431

                     25                     26                     27
                      A                      A                      A
 Frequencies --    717.2449               768.7048               825.8143
 Red. masses --      3.6305                 5.1736                 1.2442
 Frc consts  --      1.1004                 1.8012                 0.4999
 IR Inten    --      1.7177                 7.3135                 0.0000

                     28                     29                     30
                      A                      A                      A
 Frequencies --    826.4425               831.8337               847.6887
 Red. masses --      4.5273                 1.6097                 1.2497
 Frc consts  --      1.8219                 0.6563                 0.5291
 IR Inten    --     17.9111                36.4451                 0.0187

                     31                     32                     33
                      A                      A                      A
 Frequencies --    851.2754               873.0677               958.7166
 Red. masses --      1.6533                 6.3993                 1.3199
 Frc consts  --      0.7059                 2.8739                 0.7148
 IR Inten    --     78.0132                 3.3761                 0.1670

                     34                     35                     36
                      A                      A                      A
 Frequencies --    966.1263               968.2119               975.1607
 Red. masses --      1.2894                 1.3401                 1.3571
 Frc consts  --      0.7091                 0.7402                 0.7603
 IR Inten    --      0.7705                 0.0000                 0.0007

                     37                     38                     39
                      A                      A                      A
 Frequencies --   1021.1483              1032.7699              1038.8074
 Red. masses --      1.4042                 2.6023                 2.9015
 Frc consts  --      0.8627                 1.6354                 1.8448
 IR Inten    --      0.0435                 3.5028                 2.0268

                     40                     41                     42
                      A                      A                      A
 Frequencies --   1070.2802              1129.4414              1154.3816
 Red. masses --      1.5264                 1.3165                 1.3479
 Frc consts  --      1.0302                 0.9895                 1.0583
 IR Inten    --     17.6439                 7.4562                 5.7679

                     43                     44                     45
                      A                      A                      A
 Frequencies --   1161.3735              1189.7235              1226.2046
 Red. masses --      4.2805                 1.2299                 1.1512
 Frc consts  --      3.4016                 1.0256                 1.0198
 IR Inten    --      0.0208                48.4169                 2.3314

                     46                     47                     48
                      A                      A                      A
 Frequencies --   1237.7438              1250.7469              1321.5919
 Red. masses --      3.0512                 3.2848                 3.0336
 Frc consts  --      2.7541                 3.0276                 3.1218
 IR Inten    --      2.2725               177.3273                 0.3056

                     49                     50                     51
                      A                      A                      A
 Frequencies --   1325.2447              1331.8190              1349.3298
 Red. masses --      3.6067                 2.0464                 1.4908
 Frc consts  --      3.7321                 2.1386                 1.5992
 IR Inten    --      0.0629                 1.2502                 0.1078

                     52                     53                     54
                      A                      A                      A
 Frequencies --   1350.4623              1438.6403              1443.4460
 Red. masses --      4.2733                 1.2334                 3.0341
 Frc consts  --      4.5917                 1.5041                 3.7246
 IR Inten    --      0.0211                 0.4370                 0.1797

                     55                     56                     57
                      A                      A                      A
 Frequencies --   1448.4403              1510.4624              1512.7628
 Red. masses --      2.5184                 1.1064                 1.0526
 Frc consts  --      3.1130                 1.4873                 1.4193
 IR Inten    --      1.3760                 9.6124                 7.1332

                     58                     59                     60
                      A                      A                      A
 Frequencies --   1540.9383              1560.5979              1600.9752
 Red. masses --      2.4002                 2.7802                 5.1058
 Frc consts  --      3.3579                 3.9894                 7.7106
 IR Inten    --     58.2713               180.2059                 0.9720

                     61                     62                     63
                      A                      A                      A
 Frequencies --   1624.0991              1649.9870              1662.2925
 Red. masses --      7.0279                 5.6620                 5.6288
 Frc consts  --     10.9220                 9.0820                 9.1639
 IR Inten    --      3.3286                17.9548                 8.5456

                     64                     65                     66
                      A                      A                      A
 Frequencies --   2306.6252              3033.1153              3089.2450
 Red. masses --     11.9977                 1.0406                 1.0953
 Frc consts  --     37.6099                 5.6402                 6.1586
 IR Inten    --      3.7038                46.6589                21.3666

                     67                     68                     69
                      A                      A                      A
 Frequencies --   3115.3542              3173.9019              3174.5806
 Red. masses --      1.1027                 1.0886                 1.0887
 Frc consts  --      6.3056                 6.4613                 6.4643
 IR Inten    --     16.7427                13.2063                29.1011

                     70                     71                     72
                      A                      A                      A
 Frequencies --   3202.8446              3204.5895              3205.4530
 Red. masses --      1.0931                 1.0940                 1.0889
 Frc consts  --      6.6068                 6.6196                 6.5917
 IR Inten    --     20.9451                 0.0299                 8.0506

                     73                     74                     75
                      A                      A                      A
 Frequencies --   3206.1888              3222.1788              3223.2939
 Red. masses --      1.0891                 1.0949                 1.0954
 Frc consts  --      6.5961                 6.6977                 6.7055
 IR Inten    --      3.0049                 5.5118                 5.0072

 - Thermochemistry -
 -------------------
 Temperature   298.150 Kelvin.  Pressure   1.00000 Atm.
 Atom     1 has atomic number  6 and mass  12.00000

 Molecular mass:   210.08448 amu.
 Principal axes and moments of inertia in atomic units:
                           1         2         3
     Eigenvalues --   647.72914********************
           X            1.00000   0.00000   0.00024
           Y            0.00000   1.00000   0.00000
           Z           -0.00024   0.00000   1.00000
 This molecule is an asymmetric top.
 Rotational symmetry number  1.
 Warning -- assumption of classical behavior for rotation
           may cause significant error
 Rotational temperatures (Kelvin)      0.13372     0.00730     0.00693
 Rotational constants (GHZ):           2.78626     0.15214     0.14440
 Zero-point vibrational energy     552979.0 (Joules/Mol)
                                  132.16515 (Kcal/Mol)
 Warning -- explicit consideration of  20 degrees of freedom as
           vibrations may cause significant error
 Vibrational temperatures:     25.20    33.70    50.59    51.08   135.42
          (Kelvin)            189.20   269.48   324.23   394.73   492.05
                              559.41   559.47   594.27   608.22   670.79
                              680.32   703.45   768.28   790.32   806.00
                              895.58   938.90   949.50  1026.47  1031.96
                             1105.99  1188.16  1189.07  1196.82  1219.63
                             1224.80  1256.15  1379.38  1390.04  1393.04
                             1403.04  1469.20  1485.93  1494.61  1539.89
                             1625.01  1660.90  1670.96  1711.75  1764.23
                             1780.84  1799.55  1901.48  1906.73  1916.19
                             1941.38  1943.01  2069.88  2076.80  2083.98
                             2173.22  2176.53  2217.07  2245.35  2303.45
                             2336.72  2373.96  2391.67  3318.72  4363.98
                             4444.73  4482.30  4566.54  4567.51  4608.18
                             4610.69  4611.93  4612.99  4636.00  4637.60

 Zero-point correction=                           0.210619 (Hartree/Particle)
 Thermal correction to Energy=                    0.224481
 Thermal correction to Enthalpy=                  0.225426
 Thermal correction to Gibbs Free Energy=         0.166306
 Sum of electronic and zero-point Energies=           -677.850460
 Sum of electronic and thermal Energies=              -677.836597
 Sum of electronic and thermal Enthalpies=            -677.835653
 Sum of electronic and thermal Free Energies=         -677.894773

                     E (Thermal)             CV                S
                      KCal/Mol        Cal/Mol-Kelvin    Cal/Mol-Kelvin
 Total                  140.864             52.429            124.428
 Electronic               0.000              0.000              0.000
 Translational            0.889              2.981             41.931
 Rotational               0.889              2.981             32.929
 Vibrational            139.087             46.467             49.568
 Vibration     1          0.593              1.986              6.898
 Vibration     2          0.593              1.985              6.321
 Vibration     3          0.594              1.982              5.515
 Vibration     4          0.594              1.982              5.495
 Vibration     5          0.603              1.953              3.573
 Vibration     6          0.612              1.922              2.924
 Vibration     7          0.632              1.857              2.254
 Vibration     8          0.650              1.802              1.916
 Vibration     9          0.677              1.721              1.569
 Vibration    10          0.721              1.592              1.203
 Vibration    11          0.757              1.494              1.005
 Vibration    12          0.757              1.494              1.005
 Vibration    13          0.777              1.442              0.916
 Vibration    14          0.785              1.421              0.883
 Vibration    15          0.824              1.325              0.748
 Vibration    16          0.830              1.310              0.730
 Vibration    17          0.845              1.275              0.686
 Vibration    18          0.889              1.175              0.578
 Vibration    19          0.905              1.141              0.546
 Vibration    20          0.916              1.117              0.523

 Optimization completed.
    -- Stationary point found.
 Normal termination of Gaussian 16 at Mon Sep 18 04:00:06 2023.
