 Gaussian 16, Revision B.01,
 Gaussian 16:  EM64L-G16RevB.01 20-Dec-2017

 ----------------------------------------------------------------------
 # opt freq b3lyp/6-31+g(d) geom=connectivity empiricaldispersion=gd3 v
 olume
 ----------------------------------------------------------------------

 -------------
 ML molecule87
 -------------
 Symbolic Z-matrix:
 Charge =  0 Multiplicity = 1

 SCF Done:  E(RB3LYP) =  -1089.98268326     A.U. after   17 cycles
 SCF Done:  E(RB3LYP) =  -1090.28502134     A.U. after   17 cycles
 SCF Done:  E(RB3LYP) =  -1090.32647228     A.U. after   16 cycles
 SCF Done:  E(RB3LYP) =  -1090.35494099     A.U. after   16 cycles
 SCF Done:  E(RB3LYP) =  -1090.36371264     A.U. after   17 cycles
 SCF Done:  E(RB3LYP) =  -1090.36558969     A.U. after   14 cycles
 SCF Done:  E(RB3LYP) =  -1090.36755965     A.U. after   17 cycles
 SCF Done:  E(RB3LYP) =  -1090.37054291     A.U. after   14 cycles
 SCF Done:  E(RB3LYP) =  -1090.37509673     A.U. after   15 cycles
 SCF Done:  E(RB3LYP) =  -1090.38367962     A.U. after   17 cycles
 SCF Done:  E(RB3LYP) =  -1090.39060064     A.U. after   17 cycles
 SCF Done:  E(RB3LYP) =  -1090.39263461     A.U. after   16 cycles
 SCF Done:  E(RB3LYP) =  -1090.39311917     A.U. after   16 cycles
 SCF Done:  E(RB3LYP) =  -1090.39306964     A.U. after   17 cycles
 SCF Done:  E(RB3LYP) =  -1090.39342915     A.U. after   13 cycles
 SCF Done:  E(RB3LYP) =  -1090.39343587     A.U. after   12 cycles
 SCF Done:  E(RB3LYP) =  -1090.39343730     A.U. after   12 cycles
 SCF Done:  E(RB3LYP) =  -1090.39343752     A.U. after   11 cycles
 SCF Done:  E(RB3LYP) =  -1090.39343760     A.U. after   11 cycles
 Optimization completed.
    -- Stationary point found.
 Normal termination of Gaussian 16 at Fri Sep 15 18:55:42 2023.

 ---------------------------------------------------------------------
 #N Geom=AllCheck Guess=TCheck SCRF=Check GenChk RB3LYP/6-31+G(d) Freq
 ---------------------------------------------------------------------

 Structure from the checkpoint file:  "molecule_87.chk"
 -------------
 ML molecule87
 -------------
 Charge =  0 Multiplicity = 1

                         Standard orientation:
 ---------------------------------------------------------------------
 Center     Atomic      Atomic             Coordinates (Angstroms)
 Number     Number       Type             X           Y           Z
 ---------------------------------------------------------------------
      1          6           0       -4.039624    0.693103   -0.933261
      2          6           0       -3.404651   -0.548573   -0.858657
      3          6           0       -2.230568   -0.685672   -0.114839
      4          6           0       -1.689645    0.423765    0.549979
      5          6           0       -2.328952    1.661213    0.474642
      6          6           0       -3.504581    1.798306   -0.265279
      7          1           0       -3.812799   -1.415863   -1.367745
      8          1           0       -3.998722    2.764020   -0.318830
      9          8           0       -0.566470    0.303242    1.347273
     10          6           0        0.680106    0.267952    0.767254
     11          6           0        0.906065    0.497634   -0.593996
     12          6           0        1.744964    0.002780    1.636787
     13          6           0        2.208871    0.457548   -1.084816
     14          6           0        3.042403   -0.034503    1.143818
     15          1           0        1.534389   -0.174550    2.686461
     16          6           0        3.287315    0.192420   -0.224577
     17          1           0        2.393277    0.632219   -2.140325
     18          1           0        3.872595   -0.241642    1.811877
     19          1           0        0.076735    0.701328   -1.262280
     20          6           0        4.625344    0.153279   -0.735140
     21          7           0        5.713113    0.122196   -1.149400
     22          1           0       -1.888959    2.499984    1.005506
     23          1           0       -4.954153    0.791245   -1.511107
     24         17           0       -1.439098   -2.241974   -0.012202
 ---------------------------------------------------------------------

 SCF Done:  E(RB3LYP) =  -1090.39343760     A.U. after    1 cycles

 The electronic state is 1-A.
 Alpha  occ. eigenvalues -- -101.57386 -19.22526 -14.34355 -10.28911 -10.28782
 Alpha  occ. eigenvalues --  -10.27996 -10.24537 -10.23614 -10.23237 -10.23130
 Alpha  occ. eigenvalues --  -10.23105 -10.22793 -10.22711 -10.22657 -10.22269
 Alpha  occ. eigenvalues --  -10.22042  -9.48834  -7.25265  -7.24271  -7.24226
 Alpha  occ. eigenvalues --   -1.11545  -0.91666  -0.91308  -0.88666  -0.86247
 Alpha  occ. eigenvalues --   -0.80584  -0.78459  -0.77344  -0.75797  -0.68048
 Alpha  occ. eigenvalues --   -0.65192  -0.64485  -0.62078  -0.57907  -0.57160
 Alpha  occ. eigenvalues --   -0.52796  -0.51485  -0.51273  -0.47938  -0.47681
 Alpha  occ. eigenvalues --   -0.45863  -0.45845  -0.44338  -0.43522  -0.42783
 Alpha  occ. eigenvalues --   -0.40805  -0.40497  -0.40043  -0.38081  -0.37594
 Alpha  occ. eigenvalues --   -0.36578  -0.35616  -0.33739  -0.33614  -0.33327
 Alpha  occ. eigenvalues --   -0.28717  -0.28317  -0.27009  -0.25397
 Alpha virt. eigenvalues --   -0.05615  -0.04760  -0.04028  -0.03688  -0.01293
 Alpha virt. eigenvalues --   -0.00475   0.00761   0.01197   0.01737   0.02319
 Alpha virt. eigenvalues --    0.02368   0.03180   0.03668   0.04135   0.04831

 Mulliken charges:
               1
     1  C   -0.118222
     2  C   -0.356048
     3  C    0.405453
     4  C   -0.308958
     5  C   -0.014782
     6  C   -0.178259
     7  H    0.207964
     8  H    0.192582
     9  O   -0.334971
    10  C   -0.214621
    11  C    0.659806
    12  C   -0.102605
    13  C   -0.750598
    14  C   -0.359692
    15  H    0.204778
    16  C    0.590207
    17  H    0.208237
    18  H    0.209010
    19  H    0.209430
    20  C   -0.203942
    21  N   -0.537623
    22  H    0.202547
    23  H    0.191568
    24  Cl   0.198738
 Sum of Mulliken charges =   0.00000

 Dipole moment (field-independent basis, Debye):
    X=             -6.1561    Y=              1.5725    Z=              0.5173  Tot=              6.3748
 Quadrupole moment (field-independent basis, Debye-Ang):
   XX=           -123.2075   YY=            -97.3470   ZZ=            -96.4302
   XY=             -4.9968   XZ=             15.9003   YZ=             -0.1168

  Exact polarizability: 245.341 -16.819 139.675   4.269  -0.269 136.236
 Approx polarizability: 342.023 -28.763 224.866   5.334   0.283 236.065

                      1                      2                      3
                      A                      A                      A
 Frequencies --     23.8358                39.7008                64.7244
 Red. masses --      9.0948                 4.4047                 5.9338
 Frc consts  --      0.0030                 0.0041                 0.0146
 IR Inten    --      0.1135                 0.2289                 0.6383

                      4                      5                      6
                      A                      A                      A
 Frequencies --     94.9435               137.2407               159.1389
 Red. masses --      9.6158                 6.3306                 6.6446
 Frc consts  --      0.0511                 0.0703                 0.0991
 IR Inten    --      4.4820                 3.1420                 3.2760

                      7                      8                      9
                      A                      A                      A
 Frequencies --    220.0635               266.4132               277.9973
 Red. masses --      9.8558                 6.7673                 5.8865
 Frc consts  --      0.2812                 0.2830                 0.2680
 IR Inten    --      1.4562                 1.4107                 0.1280

                     10                     11                     12
                      A                      A                      A
 Frequencies --    295.7346               401.9165               419.0320
 Red. masses --      7.7146                 8.7673                 3.0506
 Frc consts  --      0.3975                 0.8344                 0.3156
 IR Inten    --      0.4570                 0.5799                 0.0469

                     13                     14                     15
                      A                      A                      A
 Frequencies --    435.1915               469.8298               474.2715
 Red. masses --      5.0541                 4.9810                 4.3703
 Frc consts  --      0.5640                 0.6478                 0.5792
 IR Inten    --      2.2532                 2.1380                 3.4921

                     16                     17                     18
                      A                      A                      A
 Frequencies --    506.0009               539.5250               557.2127
 Red. masses --      7.1801                 5.3494                 6.8248
 Frc consts  --      1.0831                 0.9174                 1.2485
 IR Inten    --      6.1276                 2.1470                 1.7314

                     19                     20                     21
                      A                      A                      A
 Frequencies --    559.1324               616.4118               659.0571
 Red. masses --      3.4315                 5.2025                 7.1101
 Frc consts  --      0.6321                 1.1647                 1.8196
 IR Inten    --     16.2644                 0.2769                 1.4603

                     22                     23                     24
                      A                      A                      A
 Frequencies --    685.0394               708.9583               717.2534
 Red. masses --      6.0816                 6.6676                 4.1762
 Frc consts  --      1.6815                 1.9745                 1.2658
 IR Inten    --      5.0038                19.6660                 0.7663

                     25                     26                     27
                      A                      A                      A
 Frequencies --    738.7225               777.3439               824.4189
 Red. masses --      2.5957                 1.6345                 4.2383
 Frc consts  --      0.8346                 0.5819                 1.6972
 IR Inten    --      8.2016                59.0048                 5.9294

                     28                     29                     30
                      A                      A                      A
 Frequencies --    831.0003               848.9516               877.1669
 Red. masses --      1.2837                 1.6510                 1.5102
 Frc consts  --      0.5223                 0.7011                 0.6846
 IR Inten    --      0.9312                53.6237                 1.1506

                     31                     32                     33
                      A                      A                      A
 Frequencies --    893.7204               957.9450               964.8345
 Red. masses --      6.4233                 1.3756                 1.3090
 Frc consts  --      3.0228                 0.7437                 0.7179
 IR Inten    --     28.1888                 2.5268                 0.7349

                     34                     35                     36
                      A                      A                      A
 Frequencies --    976.0841               992.8198              1032.4159
 Red. masses --      1.3370                 1.2912                 2.7257
 Frc consts  --      0.7505                 0.7499                 1.7117
 IR Inten    --      0.0667                 0.0090                 3.0279

                     37                     38                     39
                      A                      A                      A
 Frequencies --   1056.6007              1078.6595              1150.0296
 Red. masses --      3.2593                 3.1104                 1.3177
 Frc consts  --      2.1438                 2.1323                 1.0268
 IR Inten    --     18.2763                32.9343                 7.0990

                     40                     41                     42
                      A                      A                      A
 Frequencies --   1153.2418              1198.4144              1204.4692
 Red. masses --      1.6115                 1.1151                 1.4034
 Frc consts  --      1.2628                 0.9436                 1.1996
 IR Inten    --      4.7767                 0.5444                67.9878

                     43                     44                     45
                      A                      A                      A
 Frequencies --   1227.8778              1238.0453              1280.0734
 Red. masses --      3.1253                 2.6682                 2.4607
 Frc consts  --      2.7762                 2.4096                 2.3756
 IR Inten    --      1.3675                 4.9757               296.4617

                     46                     47                     48
                      A                      A                      A
 Frequencies --   1296.2469              1333.5487              1339.2098
 Red. masses --      2.0427                 7.2581                 1.9506
 Frc consts  --      2.0223                 7.6049                 2.0611
 IR Inten    --    211.8481                 8.0298                19.7645

                     49                     50                     51
                      A                      A                      A
 Frequencies --   1345.5168              1459.2178              1481.2469
 Red. masses --      2.8865                 3.0492                 2.1805
 Frc consts  --      3.0790                 3.8253                 2.8188
 IR Inten    --      8.8544                 3.4944                23.9547

                     52                     53                     54
                      A                      A                      A
 Frequencies --   1515.2698              1545.4174              1617.4937
 Red. masses --      2.5849                 2.4223                 6.8027
 Frc consts  --      3.4969                 3.4086                10.4862
 IR Inten    --    161.9882               140.4943                 6.0478

                     55                     56                     57
                      A                      A                      A
 Frequencies --   1625.7343              1634.1425              1659.6708
 Red. masses --      6.3151                 5.7157                 5.7084
 Frc consts  --      9.8341                 8.9929                 9.2642
 IR Inten    --      7.8264                45.7102               110.5644

                     58                     59                     60
                      A                      A                      A
 Frequencies --   2331.5211              3194.0221              3206.1318
 Red. masses --     12.6786                 1.0866                 1.0905
 Frc consts  --     40.6068                 6.5315                 6.6044
 IR Inten    --     81.3201                 1.0963                10.5323

                     61                     62                     63
                      A                      A                      A
 Frequencies --   3208.2241              3209.4026              3216.2265
 Red. masses --      1.0892                 1.0893                 1.0939
 Frc consts  --      6.6053                 6.6107                 6.6668
 IR Inten    --      4.9486                 1.0393                 5.5382

                     64                     65                     66
                      A                      A                      A
 Frequencies --   3221.6826              3224.0275              3226.1592
 Red. masses --      1.0968                 1.0953                 1.0942
 Frc consts  --      6.7072                 6.7078                 6.7096
 IR Inten    --      5.9172                 2.6388                 1.8255

 - Thermochemistry -
 -------------------
 Temperature   298.150 Kelvin.  Pressure   1.00000 Atm.
 Atom     1 has atomic number  6 and mass  12.00000

 Molecular mass:   229.02944 amu.
 Principal axes and moments of inertia in atomic units:
                           1         2         3
     Eigenvalues --  1668.668217295.657497704.15348
           X            0.99989  -0.01077   0.01067
           Y            0.01087   0.99990  -0.00880
           Z           -0.01057   0.00892   0.99990
 This molecule is an asymmetric top.
 Rotational symmetry number  1.
 Warning -- assumption of classical behavior for rotation
           may cause significant error
 Rotational temperatures (Kelvin)      0.05191     0.01187     0.01124
 Rotational constants (GHZ):           1.08155     0.24737     0.23426
 Zero-point vibrational energy     457700.7 (Joules/Mol)
                                  109.39308 (Kcal/Mol)
 Warning -- explicit consideration of  20 degrees of freedom as
           vibrations may cause significant error
 Vibrational temperatures:     34.29    57.12    93.12   136.60   197.46
          (Kelvin)            228.97   316.62   383.31   399.98   425.50
                              578.27   602.89   626.14   675.98   682.37
                              728.02   776.26   801.70   804.47   886.88
                              948.24   985.62  1020.03  1031.97  1062.86
                             1118.42  1186.15  1195.62  1221.45  1262.05
                             1285.86  1378.27  1388.18  1404.37  1428.45
                             1485.42  1520.21  1551.95  1654.64  1659.26
                             1724.25  1732.96  1766.64  1781.27  1841.74
                             1865.01  1918.68  1926.82  1935.90  2099.49
                             2131.18  2180.14  2223.51  2327.21  2339.07
                             2351.17  2387.90  3354.54  4595.49  4612.91
                             4615.92  4617.61  4627.43  4635.28  4638.66
                             4641.72

 Zero-point correction=                           0.174329 (Hartree/Particle)
 Thermal correction to Energy=                    0.187330
 Thermal correction to Enthalpy=                  0.188274
 Thermal correction to Gibbs Free Energy=         0.132674
 Sum of electronic and zero-point Energies=          -1090.219109
 Sum of electronic and thermal Energies=             -1090.206108
 Sum of electronic and thermal Enthalpies=           -1090.205163
 Sum of electronic and thermal Free Energies=        -1090.260763

                     E (Thermal)             CV                S
                      KCal/Mol        Cal/Mol-Kelvin    Cal/Mol-Kelvin
 Total                  117.551             49.839            117.019
 Electronic               0.000              0.000              0.000
 Translational            0.889              2.981             42.188
 Rotational               0.889              2.981             32.906
 Vibrational            115.774             43.877             41.926
 Vibration     1          0.593              1.985              6.286
 Vibration     2          0.594              1.981              5.274
 Vibration     3          0.597              1.971              4.308
 Vibration     4          0.603              1.953              3.556
 Vibration     5          0.614              1.916              2.842
 Vibration     6          0.621              1.892              2.560
 Vibration     7          0.647              1.811              1.959
 Vibration     8          0.672              1.735              1.619
 Vibration     9          0.679              1.714              1.546
 Vibration    10          0.690              1.682              1.441
 Vibration    11          0.768              1.466              0.956
 Vibration    12          0.782              1.429              0.895
 Vibration    13          0.796              1.394              0.842
 Vibration    14          0.827              1.317              0.738
 Vibration    15          0.831              1.307              0.726
 Vibration    16          0.861              1.237              0.643
 Vibration    17          0.895              1.163              0.566
 Vibration    18          0.913              1.124              0.529
 Vibration    19          0.915              1.120              0.526
 Vibration    20          0.976              0.997              0.422

 Optimization completed.
    -- Stationary point found.
 Normal termination of Gaussian 16 at Fri Sep 15 19:00:12 2023.
