 Gaussian 16, Revision B.01,
 Gaussian 16:  EM64L-G16RevB.01 20-Dec-2017

 ----------------------------------------------------------------------
 # opt freq b3lyp/6-31+g(d) geom=connectivity empiricaldispersion=gd3 v
 olume
 ----------------------------------------------------------------------

 --------------
 ML molecule112
 --------------
 Symbolic Z-matrix:
 Charge =  0 Multiplicity = 1

 SCF Done:  E(RB3LYP) =  -782.279099927     A.U. after   16 cycles
 SCF Done:  E(RB3LYP) =  -782.309891648     A.U. after   16 cycles
 SCF Done:  E(RB3LYP) =  -782.336795813     A.U. after   17 cycles
 SCF Done:  E(RB3LYP) =  -782.356236154     A.U. after   16 cycles
 SCF Done:  E(RB3LYP) =  -782.358108390     A.U. after   18 cycles
 SCF Done:  E(RB3LYP) =  -782.368559552     A.U. after   18 cycles
 SCF Done:  E(RB3LYP) =  -782.367658633     A.U. after   16 cycles
 SCF Done:  E(RB3LYP) =  -782.367439667     A.U. after   16 cycles
 SCF Done:  E(RB3LYP) =  -782.364247531     A.U. after   15 cycles
 SCF Done:  E(RB3LYP) =  -782.370438973     A.U. after   12 cycles
 SCF Done:  E(RB3LYP) =  -782.388726804     A.U. after   12 cycles
 SCF Done:  E(RB3LYP) =  -782.388732159     A.U. after   13 cycles
 SCF Done:  E(RB3LYP) =  -782.388735860     A.U. after   13 cycles
 SCF Done:  E(RB3LYP) =  -782.388744559     A.U. after   13 cycles
 SCF Done:  E(RB3LYP) =  -782.388752285     A.U. after   14 cycles
 SCF Done:  E(RB3LYP) =  -782.388753370     A.U. after   12 cycles
 SCF Done:  E(RB3LYP) =  -782.388753880     A.U. after   12 cycles
 SCF Done:  E(RB3LYP) =  -782.388753877     A.U. after   11 cycles
 SCF Done:  E(RB3LYP) =  -782.388753898     A.U. after   10 cycles
 Optimization completed.
    -- Stationary point found.
 Normal termination of Gaussian 16 at Fri Sep 15 12:14:27 2023.

 ---------------------------------------------------------------------
 #N Geom=AllCheck Guess=TCheck SCRF=Check GenChk RB3LYP/6-31+G(d) Freq
 ---------------------------------------------------------------------

 Structure from the checkpoint file:  "molecule_112.chk"
 --------------
 ML molecule112
 --------------
 Charge =  0 Multiplicity = 1

                         Standard orientation:
 ---------------------------------------------------------------------
 Center     Atomic      Atomic             Coordinates (Angstroms)
 Number     Number       Type             X           Y           Z
 ---------------------------------------------------------------------
      1          6           0       -2.571913   -0.380597   -0.000021
      2          6           0       -1.500300   -1.271676   -0.000086
      3          6           0       -0.203786   -0.764552   -0.000082
      4          6           0       -0.000963    0.621122   -0.000030
      5          6           0       -1.082799    1.529257    0.000032
      6          6           0       -2.371263    1.004234    0.000035
      7          1           0       -1.683049   -2.339497   -0.000130
      8          1           0       -3.231568    1.663892    0.000077
      9          8           0        1.241812    1.198046   -0.000032
     10          6           0        2.378553    0.390620   -0.000012
     11          6           0        2.950620    0.022541   -1.216672
     12          6           0        2.950429    0.022328    1.216679
     13          6           0        4.123788   -0.737307   -1.211057
     14          6           0        4.123594   -0.737518    1.211120
     15          6           0        4.710259   -1.119183    0.000043
     16          1           0        4.579310   -1.027972   -2.153841
     17          1           0        4.578964   -1.028347    2.153926
     18          1           0        0.644421   -1.439359   -0.000134
     19          1           0        2.478216    0.332811   -2.143865
     20          7           0       -3.939661   -0.904566   -0.000018
     21          8           0       -4.870895   -0.093671   -0.000008
     22          8           0       -4.090415   -2.130148   -0.000026
     23          1           0        2.477880    0.332442    2.143851
     24          1           0        5.623018   -1.708498    0.000060
     25          6           0       -0.822226    3.013458    0.000105
     26          1           0       -0.238170    3.310780    0.879223
     27          1           0       -0.238149    3.310871   -0.878966
     28          1           0       -1.761228    3.574663    0.000127
 ---------------------------------------------------------------------

 SCF Done:  E(RB3LYP) =  -782.388753898     A.U. after    1 cycles

 The electronic state is 1-A.
 Alpha  occ. eigenvalues --  -19.22214 -19.18788 -19.18770 -14.57591 -10.28763
 Alpha  occ. eigenvalues --  -10.27623 -10.25509 -10.22869 -10.22784 -10.22469
 Alpha  occ. eigenvalues --  -10.22163 -10.22159 -10.22116 -10.22008 -10.22008
 Alpha  occ. eigenvalues --  -10.21768 -10.20185  -1.22685  -1.11055  -1.05386
 Alpha  occ. eigenvalues --   -0.90027  -0.88036  -0.82310  -0.79643  -0.77663
 Alpha  occ. eigenvalues --   -0.77187  -0.71690  -0.70516  -0.65324  -0.64058
 Alpha  occ. eigenvalues --   -0.62075  -0.59121  -0.57083  -0.55537  -0.53367
 Alpha  occ. eigenvalues --   -0.52854  -0.52431  -0.50097  -0.49803  -0.47471
 Alpha  occ. eigenvalues --   -0.46987  -0.45276  -0.45126  -0.44613  -0.43328
 Alpha  occ. eigenvalues --   -0.42674  -0.40795  -0.40055  -0.39080  -0.38664
 Alpha  occ. eigenvalues --   -0.38090  -0.36378  -0.35668  -0.31507  -0.31430
 Alpha  occ. eigenvalues --   -0.29539  -0.28394  -0.27773  -0.27195  -0.25671
 Alpha virt. eigenvalues --   -0.09550  -0.04269  -0.03390  -0.02941  -0.00969
 Alpha virt. eigenvalues --   -0.00299   0.00406   0.01341   0.01353   0.02369
 Alpha virt. eigenvalues --    0.03000   0.03432   0.03776   0.04478   0.05064

 Mulliken charges:
               1
     1  C   -0.323891
     2  C   -0.686566
     3  C    0.516999
     4  C   -0.355254
     5  C    0.413541
     6  C    0.012196
     7  H    0.230719
     8  H    0.225164
     9  O   -0.307373
    10  C    0.105065
    11  C    0.001185
    12  C    0.001141
    13  C   -0.178819
    14  C   -0.178808
    15  C   -0.221794
    16  H    0.189193
    17  H    0.189193
    18  H    0.217311
    19  H    0.194029
    20  N   -0.351646
    21  O   -0.023483
    22  O   -0.031192
    23  H    0.194028
    24  H    0.185457
    25  C   -0.692494
    26  H    0.232562
    27  H    0.232563
    28  H    0.210972
 Sum of Mulliken charges =   0.00000

 Dipole moment (field-independent basis, Debye):
    X=              6.4841    Y=              1.2172    Z=              0.0000  Tot=              6.5974
 Quadrupole moment (field-independent basis, Debye-Ang):
   XX=           -118.9201   YY=            -98.8163   ZZ=            -93.6582
   XY=            -14.8613   XZ=             -0.0007   YZ=             -0.0004

  Exact polarizability: 244.725  -9.182 161.720  -0.003  -0.001 124.328
 Approx polarizability: 338.043 -22.252 281.116  -0.006  -0.003 206.773

                      1                      2                      3
                      A                      A                      A
 Frequencies --      9.5378                37.7615                58.2224
 Red. masses --      4.6144                 4.9167                 7.1303
 Frc consts  --      0.0002                 0.0041                 0.0142
 IR Inten    --      0.0813                 0.0072                 0.0524

                      4                      5                      6
                      A                      A                      A
 Frequencies --     61.4851               100.1101               140.9888
 Red. masses --      5.9697                 6.6673                 1.0749
 Frc consts  --      0.0133                 0.0394                 0.0126
 IR Inten    --      0.4536                 3.0065                 0.4278

                      7                      8                      9
                      A                      A                      A
 Frequencies --    195.6508               196.3481               226.0406
 Red. masses --      7.0191                 3.0407                 3.4903
 Frc consts  --      0.1583                 0.0691                 0.1051
 IR Inten    --      2.1599                 0.1516                 0.5842

                     10                     11                     12
                      A                      A                      A
 Frequencies --    242.7003               309.6215               367.1719
 Red. masses --      5.6028                 5.6296                 6.8394
 Frc consts  --      0.1944                 0.3180                 0.5433
 IR Inten    --      0.0031                 3.2898                 0.2956

                     13                     14                     15
                      A                      A                      A
 Frequencies --    412.9441               423.0187               431.7869
 Red. masses --      5.8331                 2.9799                 5.5317
 Frc consts  --      0.5860                 0.3142                 0.6076
 IR Inten    --      2.2505                 0.1143                 2.1391

                     16                     17                     18
                      A                      A                      A
 Frequencies --    450.8805               485.8233               539.7107
 Red. masses --      3.1668                 4.9438                 3.7296
 Frc consts  --      0.3793                 0.6875                 0.6401
 IR Inten    --      0.9594                11.0559                 0.2995

                     19                     20                     21
                      A                      A                      A
 Frequencies --    542.4581               557.0896               628.4888
 Red. masses --      3.9234                 6.2929                 6.5441
 Frc consts  --      0.6802                 1.1507                 1.5230
 IR Inten    --      3.3947                 0.4658                 0.0210

                     22                     23                     24
                      A                      A                      A
 Frequencies --    633.5407               656.3919               693.9404
 Red. masses --      5.3205                 6.6380                 4.4174
 Frc consts  --      1.2582                 1.6851                 1.2533
 IR Inten    --      2.1271                 7.3333                 0.0462

                     25                     26                     27
                      A                      A                      A
 Frequencies --    699.8320               749.7068               750.2842
 Red. masses --      2.1089                 6.3518                 2.5324
 Frc consts  --      0.6085                 2.1034                 0.8399
 IR Inten    --     27.4007                22.6913                20.2112

                     28                     29                     30
                      A                      A                      A
 Frequencies --    807.8363               810.9262               838.7262
 Red. masses --      3.2502                 5.2999                 1.4292
 Frc consts  --      1.2497                 2.0534                 0.5923
 IR Inten    --     59.4492                 7.1503                13.9049

                     31                     32                     33
                      A                      A                      A
 Frequencies --    846.6196               874.0047               926.6059
 Red. masses --      1.2748                 5.9819                 1.3737
 Frc consts  --      0.5384                 2.6923                 0.6949
 IR Inten    --      2.1777                11.9290                14.9636

                     34                     35                     36
                      A                      A                      A
 Frequencies --    929.7739               949.1686               972.1691
 Red. masses --      1.4874                 5.9080                 1.3036
 Frc consts  --      0.7576                 3.1360                 0.7259
 IR Inten    --      5.9329                39.6475                 1.4339

                     37                     38                     39
                      A                      A                      A
 Frequencies --    977.6734              1000.4952              1017.7120
 Red. masses --      1.3548                 1.2752                 6.2614
 Frc consts  --      0.7630                 0.7521                 3.8210
 IR Inten    --      0.0688                 0.0618                 5.1167

                     40                     41                     42
                      A                      A                      A
 Frequencies --   1029.2088              1047.0844              1074.5452
 Red. masses --      1.5484                 2.0785                 1.4778
 Frc consts  --      0.9664                 1.3426                 1.0054
 IR Inten    --      3.1189                10.1956                 1.5714

                     43                     44                     45
                      A                      A                      A
 Frequencies --   1101.9218              1124.9579              1174.3457
 Red. masses --      1.5141                 1.9288                 1.9119
 Frc consts  --      1.0832                 1.4381                 1.5535
 IR Inten    --      7.6242               135.2716                 5.4550

                     46                     47                     48
                      A                      A                      A
 Frequencies --   1194.6127              1197.3488              1212.6846
 Red. masses --      1.2301                 1.1172                 2.0552
 Frc consts  --      1.0343                 0.9436                 1.7808
 IR Inten    --     26.7607                 0.0250                23.1811

                     49                     50                     51
                      A                      A                      A
 Frequencies --   1237.3330              1282.9253              1312.0341
 Red. masses --      3.6695                 4.5299                 1.3815
 Frc consts  --      3.3100                 4.3928                 1.4012
 IR Inten    --     77.3110               682.4029                 6.7400

                     52                     53                     54
                      A                      A                      A
 Frequencies --   1334.3106              1356.6196              1373.1769
 Red. masses --      1.8383                 2.9237                11.0572
 Frc consts  --      1.9284                 3.1703                12.2843
 IR Inten    --      0.3417                 0.3005               467.8687

                     55                     56                     57
                      A                      A                      A
 Frequencies --   1380.1172              1443.1732              1454.3601
 Red. masses --      8.1351                 1.2639                 2.9929
 Frc consts  --      9.1295                 1.5509                 3.7298
 IR Inten    --     12.0527                 2.5668                 2.7193

                     58                     59                     60
                      A                      A                      A
 Frequencies --   1493.4855              1500.4670              1512.6808
 Red. masses --      2.1912                 1.0434                 1.3982
 Frc consts  --      2.8797                 1.3840                 1.8850
 IR Inten    --      2.2821                 9.3241                20.2940

                     61                     62                     63
                      A                      A                      A
 Frequencies --   1529.3020              1534.7035              1584.1165
 Red. masses --      2.0503                 2.1376                12.2497
 Frc consts  --      2.8253                 2.9664                18.1113
 IR Inten    --    228.1713                15.4673               210.8324

                     64                     65                     66
                      A                      A                      A
 Frequencies --   1634.7458              1644.0048              1649.7723
 Red. masses --      5.7254                 6.0734                 6.1961
 Frc consts  --      9.0149                 9.6713                 9.9361
 IR Inten    --    178.2416                 5.4677                 2.8389

                     67                     68                     69
                      A                      A                      A
 Frequencies --   1657.2024              3047.0251              3099.2602
 Red. masses --      7.2121                 1.0365                 1.1004
 Frc consts  --     11.6698                 5.6699                 6.2273
 IR Inten    --     35.7102                23.5129                11.5399

                     70                     71                     72
                      A                      A                      A
 Frequencies --   3131.2531              3185.9914              3194.8993
 Red. masses --      1.1026                 1.0860                 1.0892
 Frc consts  --      6.3697                 6.4946                 6.5503
 IR Inten    --     17.5500                 0.7059                 7.4366

                     73                     74                     75
                      A                      A                      A
 Frequencies --   3205.6157              3212.8030              3216.6279
 Red. masses --      1.0923                 1.0945                 1.0975
 Frc consts  --      6.6130                 6.6565                 6.6902
 IR Inten    --     23.2399                10.2011                 2.9907

                     76                     77                     78
                      A                      A                      A
 Frequencies --   3225.7613              3233.3187              3246.0415
 Red. masses --      1.0895                 1.0912                 1.0937
 Frc consts  --      6.6794                 6.7210                 6.7895
 IR Inten    --      1.7339                 1.2930                 1.6489

 - Thermochemistry -
 -------------------
 Temperature   298.150 Kelvin.  Pressure   1.00000 Atm.
 Atom     1 has atomic number  6 and mass  12.00000

 Molecular mass:   229.07389 amu.
 Principal axes and moments of inertia in atomic units:
                           1         2         3
     Eigenvalues --  1642.784727966.865938960.41846
           X            0.99988  -0.01529   0.00000
           Y            0.01529   0.99988   0.00000
           Z            0.00000   0.00000   1.00000
 This molecule is an asymmetric top.
 Rotational symmetry number  1.
 Warning -- assumption of classical behavior for rotation
           may cause significant error
 Rotational temperatures (Kelvin)      0.05272     0.01087     0.00967
 Rotational constants (GHZ):           1.09859     0.22653     0.20141
 Zero-point vibrational energy     565971.7 (Joules/Mol)
                                  135.27049 (Kcal/Mol)
 Warning -- explicit consideration of  20 degrees of freedom as
           vibrations may cause significant error
 Vibrational temperatures:     13.72    54.33    83.77    88.46   144.04
          (Kelvin)            202.85   281.50   282.50   325.22   349.19
                              445.48   528.28   594.13   608.63   621.25
                              648.72   698.99   776.52   780.48   801.53
                              904.26   911.52   944.40   998.43  1006.90
                             1078.66  1079.49  1162.30  1166.74  1206.74
                             1218.10  1257.50  1333.18  1337.74  1365.64
                             1398.73  1406.65  1439.49  1464.26  1480.80
                             1506.52  1546.03  1585.42  1618.56  1689.62
                             1718.78  1722.72  1744.78  1780.25  1845.84
                             1887.72  1919.78  1951.87  1975.70  1985.68
                             2076.40  2092.50  2148.79  2158.84  2176.41
                             2200.32  2208.10  2279.19  2352.03  2365.36
                             2373.65  2384.34  4383.99  4459.14  4505.17
                             4583.93  4596.75  4612.17  4622.51  4628.01
                             4641.15  4652.02  4670.33

 Zero-point correction=                           0.215567 (Hartree/Particle)
 Thermal correction to Energy=                    0.229849
 Thermal correction to Enthalpy=                  0.230793
 Thermal correction to Gibbs Free Energy=         0.171402
 Sum of electronic and zero-point Energies=           -782.173187
 Sum of electronic and thermal Energies=              -782.158905
 Sum of electronic and thermal Enthalpies=            -782.157960
 Sum of electronic and thermal Free Energies=         -782.217351

                     E (Thermal)             CV                S
                      KCal/Mol        Cal/Mol-Kelvin    Cal/Mol-Kelvin
 Total                  144.233             54.504            124.999
 Electronic               0.000              0.000              0.000
 Translational            0.889              2.981             42.189
 Rotational               0.889              2.981             33.128
 Vibrational            142.455             48.542             49.682
 Vibration     1          0.593              1.987              8.105
 Vibration     2          0.594              1.982              5.373
 Vibration     3          0.596              1.974              4.517
 Vibration     4          0.597              1.973              4.409
 Vibration     5          0.604              1.949              3.452
 Vibration     6          0.615              1.912              2.790
 Vibration     7          0.636              1.846              2.174
 Vibration     8          0.636              1.845              2.167
 Vibration     9          0.650              1.801              1.910
 Vibration    10          0.659              1.775              1.783
 Vibration    11          0.699              1.655              1.364
 Vibration    12          0.740              1.540              1.092
 Vibration    13          0.777              1.442              0.916
 Vibration    14          0.785              1.420              0.882
 Vibration    15          0.793              1.401              0.853
 Vibration    16          0.810              1.359              0.793
 Vibration    17          0.842              1.281              0.695
 Vibration    18          0.895              1.162              0.566
 Vibration    19          0.898              1.156              0.560
 Vibration    20          0.913              1.124              0.530

 Optimization completed.
    -- Stationary point found.
 Normal termination of Gaussian 16 at Fri Sep 15 12:19:58 2023.
