 Gaussian 16, Revision B.01,
 Gaussian 16:  EM64L-G16RevB.01 20-Dec-2017

 ---------------------------------------------------------
 # opt freq b3lyp/6-31+g(d) empiricaldispersion=gd3 volume
 ---------------------------------------------------------

 -------------------
 Title Card Required
 -------------------
 Symbolic Z-matrix:
 Charge =  0 Multiplicity = 1

 SCF Done:  E(RB3LYP) =  -670.063782221     A.U. after   15 cycles
 SCF Done:  E(RB3LYP) =  -670.064953445     A.U. after   12 cycles
 SCF Done:  E(RB3LYP) =  -670.065109687     A.U. after   12 cycles
 SCF Done:  E(RB3LYP) =  -670.065112366     A.U. after   12 cycles
 SCF Done:  E(RB3LYP) =  -670.065129491     A.U. after   12 cycles
 SCF Done:  E(RB3LYP) =  -670.065133048     A.U. after   11 cycles
 Optimization completed.
    -- Stationary point found.
 Normal termination of Gaussian 16 at Mon Sep 18 04:41:38 2023.

 ---------------------------------------------------------------------
 #N Geom=AllCheck Guess=TCheck SCRF=Check GenChk RB3LYP/6-31+G(d) Freq
 ---------------------------------------------------------------------

 Structure from the checkpoint file:  "molecule_32.chk"
 -------------------
 Title Card Required
 -------------------
 Charge =  0 Multiplicity = 1

                         Standard orientation:
 ---------------------------------------------------------------------
 Center     Atomic      Atomic             Coordinates (Angstroms)
 Number     Number       Type             X           Y           Z
 ---------------------------------------------------------------------
      1          6           0       -5.179429    1.042392   -0.000099
      2          6           0       -3.789808    1.151578   -0.000023
      3          6           0       -3.013455   -0.023988    0.000031
      4          6           0       -3.704967   -1.251385    0.000005
      5          6           0       -5.098814   -1.240540   -0.000070
      6          1           0       -5.795200    1.940022   -0.000141
      7          1           0       -3.311137    2.125999   -0.000006
      8          1           0       -3.158758   -2.189634    0.000045
      9          1           0       -5.649736   -2.179384   -0.000093
     10          6           0       -1.591990    0.026314    0.000115
     11          6           0       -0.374966    0.068658    0.000172
     12          6           0        1.046938    0.122906    0.000102
     13          6           0        1.724693    1.364065    0.000027
     14          6           0        1.815340   -1.055329    0.000114
     15          6           0        3.109732    1.417032   -0.000032
     16          1           0        1.147672    2.284067    0.000017
     17          6           0        3.209815   -1.009936    0.000056
     18          1           0        1.311611   -2.017572    0.000172
     19          6           0        3.864173    0.230920   -0.000019
     20          1           0        3.636336    2.366468   -0.000088
     21          1           0        3.768357   -1.938889    0.000069
     22          7           0       -5.842396   -0.123922   -0.000123
     23          8           0        5.216752    0.393195   -0.000079
     24          6           0        6.046685   -0.764211   -0.000083
     25          1           0        7.072262   -0.391648   -0.000140
     26          1           0        5.878872   -1.374177    0.897423
     27          1           0        5.878790   -1.374230   -0.897538
 ---------------------------------------------------------------------

 SCF Done:  E(RB3LYP) =  -670.065133048     A.U. after    1 cycles

 The electronic state is 1-A.
 Alpha  occ. eigenvalues --  -19.20373 -14.33936 -10.27203 -10.25805 -10.24001
 Alpha  occ. eigenvalues --  -10.23042 -10.23038 -10.22626 -10.21652 -10.21456
 Alpha  occ. eigenvalues --  -10.21090 -10.20973 -10.20966 -10.20778 -10.20613
 Alpha  occ. eigenvalues --  -10.20246  -1.08680  -0.94718  -0.87695  -0.83539
 Alpha  occ. eigenvalues --   -0.79595  -0.77064  -0.76885  -0.74839  -0.71526
 Alpha  occ. eigenvalues --   -0.65515  -0.63854  -0.63222  -0.61716  -0.56351
 Alpha  occ. eigenvalues --   -0.55157  -0.52695  -0.50349  -0.49303  -0.48699
 Alpha  occ. eigenvalues --   -0.48145  -0.46617  -0.44439  -0.43973  -0.43606
 Alpha  occ. eigenvalues --   -0.43550  -0.40972  -0.40710  -0.40111  -0.38280
 Alpha  occ. eigenvalues --   -0.37548  -0.36125  -0.34749  -0.32996  -0.28312
 Alpha  occ. eigenvalues --   -0.27892  -0.27272  -0.27092  -0.26430  -0.22103
 Alpha virt. eigenvalues --   -0.06791  -0.02753  -0.02300  -0.01104  -0.00529
 Alpha virt. eigenvalues --    0.00430   0.01532   0.01975   0.02306   0.03282
 Alpha virt. eigenvalues --    0.03505   0.03829   0.03838   0.04667   0.05356

 Mulliken charges:
               1
     1  C   -0.491893
     2  C    0.451428
     3  C    0.004070
     4  C    0.010835
     5  C   -0.364053
     6  H    0.181452
     7  H    0.195863
     8  H    0.196026
     9  H    0.181316
    10  C   -0.066763
    11  C   -0.094553
    12  C    0.028445
    13  C   -0.454165
    14  C   -0.684190
    15  C   -0.106091
    16  H    0.197036
    17  C    0.541521
    18  H    0.195813
    19  C   -0.055881
    20  H    0.196579
    21  H    0.181420
    22  N   -0.165726
    23  O   -0.374042
    24  C   -0.330168
    25  H    0.212642
    26  H    0.206540
    27  H    0.206541
 Sum of Mulliken charges =   0.00000

 Dipole moment (field-independent basis, Debye):
    X=              4.8046    Y=             -1.1588    Z=              0.0000  Tot=              4.9424
 Quadrupole moment (field-independent basis, Debye-Ang):
   XX=            -97.7130   YY=            -81.5748   ZZ=            -98.7941
   XY=             -8.6880   XZ=             -0.0007   YZ=             -0.0003

  Exact polarizability: 368.935  -0.836 163.086   0.002  -0.001  91.458
 Approx polarizability: 512.586   4.980 275.088   0.005  -0.003 135.130

                      1                      2                      3
                      A                      A                      A
 Frequencies --     23.6626                36.6188                37.0674
 Red. masses --      3.5099                 5.9258                 5.5158
 Frc consts  --      0.0012                 0.0047                 0.0045
 IR Inten    --      0.2965                 0.0156                 0.0770

                      4                      5                      6
                      A                      A                      A
 Frequencies --     85.2904               128.4931               132.6882
 Red. masses --      3.9926                 5.2344                 5.3757
 Frc consts  --      0.0171                 0.0509                 0.0558
 IR Inten    --      2.7024                 0.9054                 0.4914

                      7                      8                      9
                      A                      A                      A
 Frequencies --    219.6355               221.7862               271.4931
 Red. masses --      2.8918                 5.6521                 3.9713
 Frc consts  --      0.0822                 0.1638                 0.1725
 IR Inten    --      3.9077                 0.0889                 3.1359

                     10                     11                     12
                      A                      A                      A
 Frequencies --    275.8637               348.3601               388.3421
 Red. masses --      1.4192                 5.9284                 2.6051
 Frc consts  --      0.0636                 0.4239                 0.2315
 IR Inten    --      2.9365                 1.2407                 0.0001

                     13                     14                     15
                      A                      A                      A
 Frequencies --    422.9761               444.6405               468.7056
 Red. masses --      3.0472                 5.8178                 5.6340
 Frc consts  --      0.3212                 0.6777                 0.7292
 IR Inten    --      0.0236                 0.8517                 0.1901

                     16                     17                     18
                      A                      A                      A
 Frequencies --    482.4947               531.6755               544.4199
 Red. masses --      6.8105                 6.3457                 2.6054
 Frc consts  --      0.9341                 1.0569                 0.4550
 IR Inten    --     12.7329                32.9397                29.2885

                     19                     20                     21
                      A                      A                      A
 Frequencies --    555.8246               574.4069               653.0017
 Red. masses --      6.4947                 3.7305                 7.0790
 Frc consts  --      1.1822                 0.7252                 1.7785
 IR Inten    --      7.5113                 2.8149                 2.1332

                     22                     23                     24
                      A                      A                      A
 Frequencies --    670.5582               683.9477               720.7803
 Red. masses --      6.3776                 7.0857                 4.0234
 Frc consts  --      1.6896                 1.9529                 1.2315
 IR Inten    --      0.4517                 0.3130                 0.0402

                     25                     26                     27
                      A                      A                      A
 Frequencies --    748.8921               798.9767               820.4391
 Red. masses --      3.4829                 5.6727                 1.2809
 Frc consts  --      1.1509                 2.1336                 0.5080
 IR Inten    --      0.0312                24.2580                 6.4797

                     28                     29                     30
                      A                      A                      A
 Frequencies --    835.4772               847.6174               872.4640
 Red. masses --      1.5049                 1.6574                 6.1683
 Frc consts  --      0.6189                 0.7016                 2.7664
 IR Inten    --     32.9976                68.9971                 4.3482

                     31                     32                     33
                      A                      A                      A
 Frequencies --    878.4154               952.5302               971.8445
 Red. masses --      1.2486                 1.3252                 1.3226
 Frc consts  --      0.5677                 0.7084                 0.7360
 IR Inten    --      0.0002                 0.1652                 0.0426

                     34                     35                     36
                      A                      A                      A
 Frequencies --    978.8032               997.2419              1006.0321
 Red. masses --      1.3175                 1.4536                 7.5610
 Frc consts  --      0.7437                 0.8517                 4.5087
 IR Inten    --      0.3149                 0.0000                11.4882

                     37                     38                     39
                      A                      A                      A
 Frequencies --   1028.1432              1063.0448              1095.5500
 Red. masses --      2.8147                 6.4212                 2.0109
 Frc consts  --      1.7530                 4.2753                 1.4220
 IR Inten    --      0.1728                72.5933                 0.9856

                     40                     41                     42
                      A                      A                      A
 Frequencies --   1118.6340              1148.4075              1170.0097
 Red. masses --      1.5867                 1.3532                 3.6097
 Frc consts  --      1.1698                 1.0515                 2.9114
 IR Inten    --      0.2196                 9.5314                47.8079

                     43                     44                     45
                      A                      A                      A
 Frequencies --   1180.3064              1213.0481              1218.5863
 Red. masses --      1.2694                 1.2941                 1.2838
 Frc consts  --      1.0419                 1.1220                 1.1232
 IR Inten    --      1.0220                 8.7584                75.6010

                     46                     47                     48
                      A                      A                      A
 Frequencies --   1253.9281              1282.4103              1294.6915
 Red. masses --      1.2760                 8.9008                 4.1704
 Frc consts  --      1.1821                 8.6245                 4.1187
 IR Inten    --     14.8341                 0.2162               365.6808

                     49                     50                     51
                      A                      A                      A
 Frequencies --   1333.1835              1344.9884              1358.2423
 Red. masses --      2.2938                 2.0341                 3.7265
 Frc consts  --      2.4021                 2.1680                 4.0504
 IR Inten    --     47.1910                43.1076                20.7918

                     52                     53                     54
                      A                      A                      A
 Frequencies --   1359.8406              1451.0150              1459.1617
 Red. masses --      1.4780                 1.8885                 2.9998
 Frc consts  --      1.6103                 2.3426                 3.7631
 IR Inten    --      2.4455                13.9455                 5.1359

                     55                     56                     57
                      A                      A                      A
 Frequencies --   1493.4320              1519.3356              1525.8340
 Red. masses --      1.1837                 1.0458                 1.0761
 Frc consts  --      1.5555                 1.4224                 1.4761
 IR Inten    --     21.7834                 8.5975                52.8297

                     58                     59                     60
                      A                      A                      A
 Frequencies --   1530.5572              1557.2214              1580.0307
 Red. masses --      2.0587                 2.5931                 6.9456
 Frc consts  --      2.8414                 3.7049                10.2162
 IR Inten    --      1.4504               155.2614                25.2286

                     61                     62                     63
                      A                      A                      A
 Frequencies --   1603.9056              1635.8637              1660.1540
 Red. masses --      6.3256                 5.0750                 5.5779
 Frc consts  --      9.5875                 8.0017                 9.0577
 IR Inten    --     18.1613               361.1679                63.8562

                     64                     65                     66
                      A                      A                      A
 Frequencies --   2303.5447              3024.7754              3087.4257
 Red. masses --     11.9960                 1.0342                 1.1071
 Frc consts  --     37.5042                 5.5749                 6.2176
 IR Inten    --    186.3028                74.9991                37.1476

                     67                     68                     69
                      A                      A                      A
 Frequencies --   3160.0521              3172.3969              3174.8392
 Red. masses --      1.1001                 1.0879                 1.0910
 Frc consts  --      6.4725                 6.4506                 6.4792
 IR Inten    --     24.0875                31.6448                24.7162

                     70                     71                     72
                      A                      A                      A
 Frequencies --   3200.0463              3200.8499              3211.9453
 Red. masses --      1.0885                 1.0893                 1.0931
 Frc consts  --      6.5673                 6.5755                 6.6444
 IR Inten    --      8.5166                 3.2397                19.9952

                     73                     74                     75
                      A                      A                      A
 Frequencies --   3212.9581              3216.8495              3226.3986
 Red. masses --      1.0948                 1.0950                 1.0925
 Frc consts  --      6.6588                 6.6764                 6.7005
 IR Inten    --      0.6941                 7.5587                12.2102

 - Thermochemistry -
 -------------------
 Temperature   298.150 Kelvin.  Pressure   1.00000 Atm.
 Atom     1 has atomic number  6 and mass  12.00000

 Molecular mass:   209.08406 amu.
 Principal axes and moments of inertia in atomic units:
                           1         2         3
     Eigenvalues --   682.23543********************
           X            0.99998  -0.00553   0.00000
           Y            0.00553   0.99998   0.00001
           Z            0.00000  -0.00001   1.00000
 This molecule is an asymmetric top.
 Rotational symmetry number  1.
 Warning -- assumption of classical behavior for rotation
           may cause significant error
 Rotational temperatures (Kelvin)      0.12696     0.00756     0.00714
 Rotational constants (GHZ):           2.64533     0.15742     0.14872
 Zero-point vibrational energy     558076.3 (Joules/Mol)
                                  133.38344 (Kcal/Mol)
 Warning -- explicit consideration of  20 degrees of freedom as
           vibrations may cause significant error
 Vibrational temperatures:     34.05    52.69    53.33   122.71   184.87
          (Kelvin)            190.91   316.01   319.10   390.62   396.91
                              501.21   558.74   608.57   639.74   674.36
                              694.20   764.96   783.30   799.71   826.44
                              939.52   964.78   984.05  1037.04  1077.49
                             1149.55  1180.43  1202.07  1219.53  1255.28
                             1263.84  1370.48  1398.27  1408.28  1434.81
                             1447.46  1479.27  1529.48  1576.25  1609.46
                             1652.30  1683.38  1698.20  1745.31  1753.27
                             1804.12  1845.10  1862.77  1918.15  1935.14
                             1954.21  1956.51  2087.69  2099.41  2148.72
                             2185.99  2195.33  2202.13  2240.49  2273.31
                             2307.66  2353.64  2388.59  3314.29  4351.98
                             4442.12  4546.61  4564.37  4567.89  4604.15
                             4605.31  4621.27  4622.73  4628.33  4642.07

 Zero-point correction=                           0.212560 (Hartree/Particle)
 Thermal correction to Energy=                    0.226074
 Thermal correction to Enthalpy=                  0.227018
 Thermal correction to Gibbs Free Energy=         0.169964
 Sum of electronic and zero-point Energies=           -669.852573
 Sum of electronic and thermal Energies=              -669.839059
 Sum of electronic and thermal Enthalpies=            -669.838115
 Sum of electronic and thermal Free Energies=         -669.895169

                     E (Thermal)             CV                S
                      KCal/Mol        Cal/Mol-Kelvin    Cal/Mol-Kelvin
 Total                  141.864             51.484            120.081
 Electronic               0.000              0.000              0.000
 Translational            0.889              2.981             41.917
 Rotational               0.889              2.981             32.917
 Vibrational            140.086             45.522             45.247
 Vibration     1          0.593              1.985              6.300
 Vibration     2          0.594              1.982              5.434
 Vibration     3          0.594              1.982              5.410
 Vibration     4          0.601              1.959              3.765
 Vibration     5          0.611              1.925              2.968
 Vibration     6          0.613              1.921              2.907
 Vibration     7          0.647              1.811              1.962
 Vibration     8          0.648              1.808              1.944
 Vibration     9          0.675              1.726              1.587
 Vibration    10          0.678              1.718              1.559
 Vibration    11          0.726              1.579              1.174
 Vibration    12          0.757              1.495              1.007
 Vibration    13          0.785              1.420              0.882
 Vibration    14          0.804              1.373              0.812
 Vibration    15          0.826              1.319              0.741
 Vibration    16          0.839              1.289              0.703
 Vibration    17          0.887              1.180              0.583
 Vibration    18          0.900              1.152              0.556
 Vibration    19          0.911              1.127              0.532
 Vibration    20          0.931              1.087              0.496

 Optimization completed.
    -- Stationary point found.
 Normal termination of Gaussian 16 at Mon Sep 18 04:45:41 2023.
