 Gaussian 16, Revision B.01,
 Gaussian 16:  EM64L-G16RevB.01 20-Dec-2017

 ----------------------------------------------------------------------
 # opt freq b3lyp/6-31+g(d) geom=connectivity empiricaldispersion=gd3 v
 olume
 ----------------------------------------------------------------------

 -------------
 ML molecule93
 -------------
 Symbolic Z-matrix:
 Charge =  0 Multiplicity = 1

 SCF Done:  E(RB3LYP) =  -538.457602646     A.U. after   14 cycles
 SCF Done:  E(RB3LYP) =  -538.485232827     A.U. after   15 cycles
 SCF Done:  E(RB3LYP) =  -538.513617117     A.U. after   15 cycles
 SCF Done:  E(RB3LYP) =  -538.529969344     A.U. after   14 cycles
 SCF Done:  E(RB3LYP) =  -538.538316191     A.U. after   16 cycles
 SCF Done:  E(RB3LYP) =  -538.543653073     A.U. after   16 cycles
 SCF Done:  E(RB3LYP) =  -538.546498379     A.U. after   15 cycles
 SCF Done:  E(RB3LYP) =  -538.548610318     A.U. after   15 cycles
 SCF Done:  E(RB3LYP) =  -538.548955874     A.U. after   13 cycles
 SCF Done:  E(RB3LYP) =  -538.549205306     A.U. after   13 cycles
 SCF Done:  E(RB3LYP) =  -538.549258225     A.U. after   12 cycles
 SCF Done:  E(RB3LYP) =  -538.549272307     A.U. after   12 cycles
 SCF Done:  E(RB3LYP) =  -538.549277561     A.U. after   11 cycles
 SCF Done:  E(RB3LYP) =  -538.549280909     A.U. after   11 cycles
 SCF Done:  E(RB3LYP) =  -538.549281237     A.U. after   10 cycles
 SCF Done:  E(RB3LYP) =  -538.549281291     A.U. after    9 cycles
 Optimization completed.
    -- Stationary point found.
 Normal termination of Gaussian 16 at Fri Sep 15 06:10:22 2023.

 ---------------------------------------------------------------------
 #N Geom=AllCheck Guess=TCheck SCRF=Check GenChk RB3LYP/6-31+G(d) Freq
 ---------------------------------------------------------------------

 Structure from the checkpoint file:  "molecule_93.chk"
 -------------
 ML molecule93
 -------------
 Charge =  0 Multiplicity = 1

                         Standard orientation:
 ---------------------------------------------------------------------
 Center     Atomic      Atomic             Coordinates (Angstroms)
 Number     Number       Type             X           Y           Z
 ---------------------------------------------------------------------
      1          6           0        3.712286    0.699836    0.151487
      2          6           0        2.636182    1.241622    0.862227
      3          6           0        1.376774    0.639175    0.815817
      4          6           0        1.199424   -0.511635    0.040555
      5          6           0        2.265394   -1.064730   -0.672101
      6          6           0        3.521574   -0.456757   -0.611191
      7          1           0        2.775695    2.135845    1.464463
      8          1           0        2.095011   -1.961731   -1.259752
      9          1           0        4.351028   -0.887407   -1.166258
     10          8           0       -0.000023   -1.199729    0.000224
     11          6           0       -1.199432   -0.511591   -0.040374
     12          6           0       -1.376553    0.639415   -0.815420
     13          6           0       -2.265630   -1.064813    0.671836
     14          6           0       -2.635932    1.241881   -0.862029
     15          6           0       -3.521794   -0.456813    0.610716
     16          1           0       -2.095461   -1.961964    1.259322
     17          6           0       -3.712271    0.699962   -0.151724
     18          1           0       -2.775269    2.136249   -1.464094
     19          1           0       -4.351381   -0.887624    1.165461
     20          1           0        0.540464    1.052272    1.370817
     21          1           0       -0.540102    1.052644   -1.370107
     22          1           0        4.689408    1.173026    0.193903
     23          1           0       -4.689349    1.173220   -0.194341
 ---------------------------------------------------------------------

 SCF Done:  E(RB3LYP) =  -538.549281291     A.U. after    1 cycles

 The electronic state is 1-A.
 Alpha  occ. eigenvalues --  -19.19829 -10.26030 -10.26030 -10.20429 -10.20429
 Alpha  occ. eigenvalues --  -10.20368 -10.20368 -10.20082 -10.20081 -10.19881
 Alpha  occ. eigenvalues --  -10.19880 -10.19801 -10.19801  -1.08585  -0.86920
 Alpha  occ. eigenvalues --   -0.85516  -0.77236  -0.75928  -0.75571  -0.73223
 Alpha  occ. eigenvalues --   -0.64311  -0.62570  -0.61496  -0.58837  -0.55374
 Alpha  occ. eigenvalues --   -0.51724  -0.49582  -0.48287  -0.47434  -0.45495
 Alpha  occ. eigenvalues --   -0.44957  -0.43382  -0.43317  -0.41071  -0.40230
 Alpha  occ. eigenvalues --   -0.37814  -0.37037  -0.36999  -0.36205  -0.34578
 Alpha  occ. eigenvalues --   -0.33452  -0.26660  -0.26045  -0.25799  -0.22750
 Alpha virt. eigenvalues --   -0.02682  -0.01998  -0.01191  -0.00289   0.00206
 Alpha virt. eigenvalues --    0.01132   0.02446   0.02649   0.03014   0.03780
 Alpha virt. eigenvalues --    0.04712   0.04764   0.05445   0.05552   0.06936

 Mulliken charges:
               1
     1  C   -0.200808
     2  C   -0.239239
     3  C    0.249499
     4  C   -0.098413
     5  C   -0.201885
     6  C   -0.265682
     7  H    0.182013
     8  H    0.191452
     9  H    0.182217
    10  O   -0.347942
    11  C   -0.098561
    12  C    0.249826
    13  C   -0.202049
    14  C   -0.239484
    15  C   -0.265742
    16  H    0.191449
    17  C   -0.200708
    18  H    0.182009
    19  H    0.182215
    20  H    0.196415
    21  H    0.196421
    22  H    0.178499
    23  H    0.178497
 Sum of Mulliken charges =   0.00000

 Dipole moment (field-independent basis, Debye):
    X=              0.0005    Y=              1.0327    Z=             -0.0002  Tot=              1.0327
 Quadrupole moment (field-independent basis, Debye-Ang):
   XX=            -67.4268   YY=            -74.5323   ZZ=            -76.9928
   XY=              0.0014   XZ=             -3.0188   YZ=              0.0009

  Exact polarizability: 198.658   0.004 124.967 -11.250   0.001 103.642
 Approx polarizability: 273.921   0.009 213.014 -24.834   0.002 166.756

                      1                      2                      3
                      A                      A                      A
 Frequencies --     23.6360                45.5554                89.9295
 Red. masses --      4.7771                 3.8975                 4.4981
 Frc consts  --      0.0016                 0.0048                 0.0214
 IR Inten    --      1.5272                 0.1844                 0.2100

                      4                      5                      6
                      A                      A                      A
 Frequencies --    217.9886               241.2249               315.3208
 Red. masses --      4.6151                 4.4879                 5.3211
 Frc consts  --      0.1292                 0.1539                 0.3117
 IR Inten    --      1.3378                 0.1300                 0.4762

                      7                      8                      9
                      A                      A                      A
 Frequencies --    386.4824               421.2029               425.5800
 Red. masses --      5.9767                 2.9991                 3.0176
 Frc consts  --      0.5260                 0.3135                 0.3220
 IR Inten    --      4.2294                 0.4301                 0.1057

                     10                     11                     12
                      A                      A                      A
 Frequencies --    486.3552               508.7501               577.3919
 Red. masses --      3.5773                 2.9750                 7.6957
 Frc consts  --      0.4986                 0.4537                 1.5116
 IR Inten    --      8.7915                20.8319                 0.2086

                     13                     14                     15
                      A                      A                      A
 Frequencies --    614.8181               629.3734               635.2660
 Red. masses --      4.8593                 6.5301                 6.1630
 Frc consts  --      1.0822                 1.5240                 1.4654
 IR Inten    --      0.3029                 0.5807                 0.3974

                     16                     17                     18
                      A                      A                      A
 Frequencies --    697.7453               702.2682               760.4331
 Red. masses --      2.4400                 2.0814                 2.2230
 Frc consts  --      0.6999                 0.6048                 0.7574
 IR Inten    --     30.7405                18.4190                11.6313

                     19                     20                     21
                      A                      A                      A
 Frequencies --    762.7662               804.3595               839.4825
 Red. masses --      1.5211                 3.1792                 1.2482
 Frc consts  --      0.5214                 1.2119                 0.5183
 IR Inten    --     92.1815                20.7323                 0.4207

                     22                     23                     24
                      A                      A                      A
 Frequencies --    843.1888               884.7584               912.2194
 Red. masses --      1.2517                 5.2869                 1.4710
 Frc consts  --      0.5243                 2.4384                 0.7212
 IR Inten    --      0.6204                37.1999                 8.7228

                     25                     26                     27
                      A                      A                      A
 Frequencies --    918.2684               973.1057               974.6755
 Red. masses --      1.5011                 1.3494                 1.3463
 Frc consts  --      0.7457                 0.7529                 0.7536
 IR Inten    --      3.4516                 0.2730                 0.0762

                     28                     29                     30
                      A                      A                      A
 Frequencies --    993.0044               993.5058              1015.2098
 Red. masses --      1.2652                 1.2624                 6.1608
 Frc consts  --      0.7351                 0.7341                 3.7411
 IR Inten    --      0.2998                 0.0343                 0.3214

                     31                     32                     33
                      A                      A                      A
 Frequencies --   1015.2522              1048.2999              1049.8705
 Red. masses --      6.2252                 2.1671                 2.0163
 Frc consts  --      3.7805                 1.4032                 1.3094
 IR Inten    --      0.1773                 1.0109                13.7423

                     34                     35                     36
                      A                      A                      A
 Frequencies --   1106.1446              1109.5596              1194.4327
 Red. masses --      1.5363                 1.5099                 1.1812
 Frc consts  --      1.1075                 1.0952                 0.9929
 IR Inten    --      7.2611                 7.6358                 3.2514

                     37                     38                     39
                      A                      A                      A
 Frequencies --   1194.8868              1199.4147              1203.2838
 Red. masses --      1.1186                 1.2731                 1.1513
 Frc consts  --      0.9410                 1.0791                 0.9822
 IR Inten    --      2.1261                 2.2719                24.6647

                     40                     41                     42
                      A                      A                      A
 Frequencies --   1225.3608              1276.4257              1328.2829
 Red. masses --      2.4422                 5.0926                 2.2633
 Frc consts  --      2.1606                 4.8885                 2.3527
 IR Inten    --      4.3012               533.4493                 0.9068

                     43                     44                     45
                      A                      A                      A
 Frequencies --   1348.5069              1362.4797              1363.7402
 Red. masses --      1.9275                 2.2228                 2.6945
 Frc consts  --      2.0651                 2.4312                 2.9525
 IR Inten    --      0.2166                10.7260                 0.2769

                     46                     47                     48
                      A                      A                      A
 Frequencies --   1491.2073              1499.9751              1529.9164
 Red. masses --      2.2209                 2.2838                 2.1960
 Frc consts  --      2.9097                 3.0274                 3.0285
 IR Inten    --      0.7988                 0.7123               230.6658

                     49                     50                     51
                      A                      A                      A
 Frequencies --   1535.5428              1635.3963              1640.9668
 Red. masses --      2.2529                 5.6756                 5.5241
 Frc consts  --      3.1298                 8.9436                 8.7642
 IR Inten    --     11.9545                10.7750               148.7272

                     52                     53                     54
                      A                      A                      A
 Frequencies --   1643.6660              1657.3690              3180.7971
 Red. masses --      6.0355                 5.7511                 1.0856
 Frc consts  --      9.6070                 9.3076                 6.4715
 IR Inten    --      9.8500                 2.2610                 2.4493

                     55                     56                     57
                      A                      A                      A
 Frequencies --   3180.9503              3189.6371              3189.7297
 Red. masses --      1.0856                 1.0894                 1.0895
 Frc consts  --      6.4721                 6.5302                 6.5308
 IR Inten    --      0.3768                12.3500                13.4752

                     58                     59                     60
                      A                      A                      A
 Frequencies --   3203.7470              3204.0441              3212.9021
 Red. masses --      1.0929                 1.0928                 1.0937
 Frc consts  --      6.6090                 6.6098                 6.6519
 IR Inten    --     50.0805                11.0427                14.8082

                     61                     62                     63
                      A                      A                      A
 Frequencies --   3213.3131              3215.2817              3215.7226
 Red. masses --      1.0938                 1.0961                 1.0955
 Frc consts  --      6.6543                 6.6763                 6.6747
 IR Inten    --      8.4063                 1.3929                 0.4173

 - Thermochemistry -
 -------------------
 Temperature   298.150 Kelvin.  Pressure   1.00000 Atm.
 Atom     1 has atomic number  6 and mass  12.00000

 Molecular mass:   170.07317 amu.
 Principal axes and moments of inertia in atomic units:
                           1         2         3
     Eigenvalues --   756.658704192.875784461.75569
           X            0.99999   0.00000  -0.00382
           Y            0.00000   1.00000   0.00001
           Z            0.00382  -0.00001   0.99999
 This molecule is an asymmetric top.
 Rotational symmetry number  1.
 Warning -- assumption of classical behavior for rotation
           may cause significant error
 Rotational temperatures (Kelvin)      0.11447     0.02066     0.01941
 Rotational constants (GHZ):           2.38515     0.43043     0.40449
 Zero-point vibrational energy     486640.7 (Joules/Mol)
                                  116.30992 (Kcal/Mol)
 Warning -- explicit consideration of  13 degrees of freedom as
           vibrations may cause significant error
 Vibrational temperatures:     34.01    65.54   129.39   313.64   347.07
          (Kelvin)            453.68   556.06   606.02   612.31   699.76
                              731.98   830.74   884.59   905.53   914.01
                             1003.90  1010.41  1094.09  1097.45  1157.29
                             1207.83  1213.16  1272.97  1312.48  1321.18
                             1400.08  1402.34  1428.71  1429.43  1460.66
                             1460.72  1508.27  1510.53  1591.50  1596.41
                             1718.52  1719.18  1725.69  1731.26  1763.02
                             1836.49  1911.10  1940.20  1960.30  1962.12
                             2145.51  2158.13  2201.21  2209.30  2352.97
                             2360.99  2364.87  2384.58  4576.46  4576.68
                             4589.18  4589.31  4609.48  4609.90  4622.65
                             4623.24  4626.07  4626.71

 Zero-point correction=                           0.185352 (Hartree/Particle)
 Thermal correction to Energy=                    0.195341
 Thermal correction to Enthalpy=                  0.196285
 Thermal correction to Gibbs Free Energy=         0.148052
 Sum of electronic and zero-point Energies=           -538.363930
 Sum of electronic and thermal Energies=              -538.353940
 Sum of electronic and thermal Enthalpies=            -538.352996
 Sum of electronic and thermal Free Energies=         -538.401230

                     E (Thermal)             CV                S
                      KCal/Mol        Cal/Mol-Kelvin    Cal/Mol-Kelvin
 Total                  122.578             40.004            101.516
 Electronic               0.000              0.000              0.000
 Translational            0.889              2.981             41.301
 Rotational               0.889              2.981             31.027
 Vibrational            120.801             34.042             29.188
 Vibration     1          0.593              1.985              6.303
 Vibration     2          0.595              1.979              5.002
 Vibration     3          0.602              1.956              3.662
 Vibration     4          0.646              1.814              1.976
 Vibration     5          0.658              1.777              1.794
 Vibration     6          0.703              1.644              1.334
 Vibration     7          0.755              1.499              1.014
 Vibration     8          0.784              1.424              0.888
 Vibration     9          0.787              1.415              0.873
 Vibration    10          0.842              1.280              0.693
 Vibration    11          0.864              1.231              0.637
 Vibration    12          0.934              1.080              0.490
 Vibration    13          0.974              1.001              0.425

 Optimization completed.
    -- Stationary point found.
 Normal termination of Gaussian 16 at Fri Sep 15 06:13:33 2023.
