 Gaussian 16, Revision B.01,
 Gaussian 16:  EM64L-G16RevB.01 20-Dec-2017

 ---------------------------------------------------------
 # opt freq b3lyp/6-31+g(d) empiricaldispersion=gd3 volume
 ---------------------------------------------------------

 -------------------
 Title Card Required
 -------------------
 Symbolic Z-matrix:
 Charge =  0 Multiplicity = 1

 SCF Done:  E(RB3LYP) =  -638.722692218     A.U. after   15 cycles
 SCF Done:  E(RB3LYP) =  -638.738456157     A.U. after   15 cycles
 SCF Done:  E(RB3LYP) =  -638.731513669     A.U. after   16 cycles
 SCF Done:  E(RB3LYP) =  -638.738115942     A.U. after   14 cycles
 SCF Done:  E(RB3LYP) =  -638.739359332     A.U. after   11 cycles
 SCF Done:  E(RB3LYP) =  -638.739559878     A.U. after   14 cycles
 SCF Done:  E(RB3LYP) =  -638.739586822     A.U. after   15 cycles
 SCF Done:  E(RB3LYP) =  -638.739565511     A.U. after   12 cycles
 SCF Done:  E(RB3LYP) =  -638.739599842     A.U. after   13 cycles
 SCF Done:  E(RB3LYP) =  -638.739603059     A.U. after   11 cycles
 SCF Done:  E(RB3LYP) =  -638.739603742     A.U. after   10 cycles
 SCF Done:  E(RB3LYP) =  -638.739603785     A.U. after    8 cycles
 Optimization completed.
    -- Stationary point found.
 Normal termination of Gaussian 16 at Sun Sep 17 16:48:04 2023.

 ---------------------------------------------------------------------
 #N Geom=AllCheck Guess=TCheck SCRF=Check GenChk RB3LYP/6-31+G(d) Freq
 ---------------------------------------------------------------------

 Structure from the checkpoint file:  "molecule_16.chk"
 -------------------
 Title Card Required
 -------------------
 Charge =  0 Multiplicity = 1

                         Standard orientation:
 ---------------------------------------------------------------------
 Center     Atomic      Atomic             Coordinates (Angstroms)
 Number     Number       Type             X           Y           Z
 ---------------------------------------------------------------------
      1          6           0        4.630472   -1.210097    0.000192
      2          6           0        3.236375   -1.214936    0.000276
      3          6           0        2.519521   -0.000049    0.000073
      4          6           0        3.236419    1.214904   -0.000184
      5          6           0        4.630446    1.210051   -0.000265
      6          6           0        5.332847   -0.000055   -0.000088
      7          1           0        5.170713   -2.153319    0.000345
      8          1           0        2.689320   -2.153264    0.000512
      9          1           0        2.689268    2.153176   -0.000297
     10          1           0        5.170776    2.153224   -0.000469
     11          1           0        6.419654   -0.000009   -0.000171
     12          6           0        1.094024    0.000062    0.000100
     13          6           0       -0.123220    0.000242   -0.000010
     14          6           0       -1.548072    0.000119    0.000004
     15          6           0       -2.266594   -1.214362   -0.000223
     16          6           0       -2.266772    1.214511    0.000230
     17          6           0       -3.660137   -1.219081   -0.000243
     18          1           0       -1.722401   -2.153781   -0.000395
     19          6           0       -3.660309    1.219036    0.000219
     20          1           0       -1.722705    2.154002    0.000411
     21          6           0       -4.329284   -0.000074   -0.000022
     22          1           0       -4.226796   -2.144617   -0.000431
     23          1           0       -4.227108    2.144486    0.000383
     24          9           0       -5.688336   -0.000170   -0.000026
 ---------------------------------------------------------------------

 SCF Done:  E(RB3LYP) =  -638.739603785     A.U. after    1 cycles

 The electronic state is 1-A.
 Alpha  occ. eigenvalues --  -24.73049 -10.29070 -10.23263 -10.22833 -10.21926
 Alpha  occ. eigenvalues --  -10.21925 -10.21519 -10.21519 -10.20843 -10.20843
 Alpha  occ. eigenvalues --  -10.20700 -10.20645 -10.20619 -10.20311 -10.20091
 Alpha  occ. eigenvalues --   -1.23483  -0.88379  -0.87245  -0.80339  -0.77963
 Alpha  occ. eigenvalues --   -0.77484  -0.76024  -0.72622  -0.64885  -0.64171
 Alpha  occ. eigenvalues --   -0.62166  -0.61914  -0.56266  -0.55204  -0.53250
 Alpha  occ. eigenvalues --   -0.50663  -0.49161  -0.47652  -0.46630  -0.46398
 Alpha  occ. eigenvalues --   -0.44887  -0.44681  -0.43529  -0.41796  -0.41170
 Alpha  occ. eigenvalues --   -0.39536  -0.38312  -0.37059  -0.36550  -0.36115
 Alpha  occ. eigenvalues --   -0.32551  -0.28121  -0.27922  -0.27791  -0.26680
 Alpha  occ. eigenvalues --   -0.22234
 Alpha virt. eigenvalues --   -0.06147  -0.03219  -0.02188  -0.00969  -0.00153
 Alpha virt. eigenvalues --    0.00908   0.01692   0.02407   0.02534   0.03500
 Alpha virt. eigenvalues --    0.03734   0.04518   0.04637   0.05107   0.05530

 Mulliken charges:
               1
     1  C   -0.168838
     2  C   -0.242652
     3  C    0.155789
     4  C   -0.242588
     5  C   -0.168847
     6  C   -0.217108
     7  H    0.182977
     8  H    0.192068
     9  H    0.192074
    10  H    0.182978
    11  H    0.181841
    12  C   -0.014543
    13  C   -0.022240
    14  C    0.246164
    15  C   -0.447172
    16  C   -0.447409
    17  C    0.085072
    18  H    0.200486
    19  C    0.085191
    20  H    0.200483
    21  C    0.005481
    22  H    0.203117
    23  H    0.203116
    24  F   -0.345440
 Sum of Mulliken charges =   0.00000

 Dipole moment (field-independent basis, Debye):
    X=              1.7891    Y=             -0.0001    Z=              0.0000  Tot=              1.7891
 Quadrupole moment (field-independent basis, Debye-Ang):
   XX=            -85.0581   YY=            -74.7240   ZZ=            -92.6336
   XY=             -0.0011   XZ=             -0.0004   YZ=              0.0001

  Exact polarizability: 327.667  -0.005 154.788   0.000   0.000  82.569
 Approx polarizability: 470.567  -0.013 262.547   0.003   0.000 121.206

                      1                      2                      3
                      A                      A                      A
 Frequencies --     20.6027                40.0455                42.4003
 Red. masses --      3.6524                 5.7973                 7.7121
 Frc consts  --      0.0009                 0.0055                 0.0082
 IR Inten    --      0.0000                 0.0706                 0.1275

                      4                      5                      6
                      A                      A                      A
 Frequencies --    117.7493               140.1313               233.6072
 Red. masses --      6.4809                 5.6939                 6.9892
 Frc consts  --      0.0529                 0.0659                 0.2247
 IR Inten    --      1.3035                 0.2734                 1.2026

                      7                      8                      9
                      A                      A                      A
 Frequencies --    240.1992               351.6943               386.9906
 Red. masses --      7.6564                 5.8766                 8.0350
 Frc consts  --      0.2603                 0.4283                 0.7090
 IR Inten    --      0.4180                 0.0668                 4.2859

                     10                     11                     12
                      A                      A                      A
 Frequencies --    411.4772               422.6035               456.1317
 Red. masses --      2.9186                 3.0402                 5.1138
 Frc consts  --      0.2912                 0.3199                 0.6269
 IR Inten    --      0.0000                 0.0000                 0.2793

                     13                     14                     15
                      A                      A                      A
 Frequencies --    484.5539               501.4602               535.7652
 Red. masses --      6.1429                 9.4386                 2.7593
 Frc consts  --      0.8498                 1.3984                 0.4667
 IR Inten    --      0.4521                32.5027                24.9972

                     16                     17                     18
                      A                      A                      A
 Frequencies --    548.6955               559.4221               634.7084
 Red. masses --      7.8635                 3.8957                 6.6001
 Frc consts  --      1.3949                 0.7183                 1.5666
 IR Inten    --      0.0320                 0.0001                 0.0009

                     19                     20                     21
                      A                      A                      A
 Frequencies --    653.4605               668.8947               698.8207
 Red. masses --      7.3422                 6.6031                 2.0240
 Frc consts  --      1.8472                 1.7406                 0.5824
 IR Inten    --      0.1259                 2.9967                32.3744

                     22                     23                     24
                      A                      A                      A
 Frequencies --    713.8809               767.1388               808.3326
 Red. masses --      4.0240                 1.7158                 6.3866
 Frc consts  --      1.2083                 0.5949                 2.4587
 IR Inten    --      1.2533                48.9938                24.3927

                     25                     26                     27
                      A                      A                      A
 Frequencies --    826.1189               851.4774               852.8303
 Red. masses --      1.2440                 1.6494                 1.2485
 Frc consts  --      0.5002                 0.7046                 0.5350
 IR Inten    --      0.0000                71.2986                 0.0000

                     28                     29                     30
                      A                      A                      A
 Frequencies --    869.6963               927.9646               959.2105
 Red. masses --      6.3032                 1.4023                 1.3191
 Frc consts  --      2.8090                 0.7114                 0.7151
 IR Inten    --      3.6634                 3.3521                 0.1370

                     31                     32                     33
                      A                      A                      A
 Frequencies --    968.7043               979.0139              1001.5324
 Red. masses --      1.3406                 1.3637                 1.2804
 Frc consts  --      0.7412                 0.7701                 0.7567
 IR Inten    --      0.0000                 0.0000                 0.0300

                     34                     35                     36
                      A                      A                      A
 Frequencies --   1012.4310              1032.8085              1052.0055
 Red. masses --      6.2622                 2.6017                 2.2696
 Frc consts  --      3.7819                 1.6351                 1.4799
 IR Inten    --      0.0009                 3.6106                 4.8782

                     37                     38                     39
                      A                      A                      A
 Frequencies --   1109.2988              1129.6604              1162.8951
 Red. masses --      1.6225                 1.3162                 3.7819
 Frc consts  --      1.1764                 0.9896                 3.0133
 IR Inten    --      5.1552                 7.9739                 0.3970

                     40                     41                     42
                      A                      A                      A
 Frequencies --   1189.9333              1200.0082              1216.9462
 Red. masses --      1.2290                 1.1083                 1.1506
 Frc consts  --      1.0253                 0.9403                 1.0040
 IR Inten    --     48.0041                 0.0016                 0.0333

                     43                     44                     45
                      A                      A                      A
 Frequencies --   1251.3912              1322.3332              1326.8172
 Red. masses --      3.2835                 2.6318                 3.0451
 Frc consts  --      3.0295                 2.7113                 3.1585
 IR Inten    --    172.4386                 0.3375                 0.0208

                     46                     47                     48
                      A                      A                      A
 Frequencies --   1332.0181              1348.4728              1363.9439
 Red. masses --      2.1230                 4.1361                 1.6951
 Frc consts  --      2.2193                 4.4312                 1.8580
 IR Inten    --      1.3308                 0.0140                 0.3909

                     49                     50                     51
                      A                      A                      A
 Frequencies --   1443.7678              1481.6064              1530.4833
 Red. masses --      3.0578                 2.1903                 2.1803
 Frc consts  --      3.7554                 2.8328                 3.0090
 IR Inten    --      0.4397                 3.6962                 4.0613

                     52                     53                     54
                      A                      A                      A
 Frequencies --   1552.2896              1616.5239              1624.2909
 Red. masses --      2.7532                 4.9823                 7.0093
 Frc consts  --      3.9087                 7.6708                10.8957
 IR Inten    --    197.9305                 1.9630                 3.1215

                     55                     56                     57
                      A                      A                      A
 Frequencies --   1645.5265              1655.5663              2307.7310
 Red. masses --      5.3991                 5.6877                11.9974
 Frc consts  --      8.6135                 9.1850                37.6450
 IR Inten    --     47.8547                 3.2457                 0.0852

                     58                     59                     60
                      A                      A                      A
 Frequencies --   3179.8323              3188.2225              3199.7445
 Red. masses --      1.0855                 1.0885                 1.0919
 Frc consts  --      6.4671                 6.5191                 6.5866
 IR Inten    --      2.2686                 5.2866                20.4926

                     61                     62                     63
                      A                      A                      A
 Frequencies --   3205.9160              3206.6148              3206.8556
 Red. masses --      1.0889                 1.0898                 1.0936
 Frc consts  --      6.5939                 6.6020                 6.6262
 IR Inten    --      7.3554                 0.0860                27.7442

                     64                     65                     66
                      A                      A                      A
 Frequencies --   3211.7333              3222.6710              3223.7672
 Red. masses --      1.0975                 1.0949                 1.0954
 Frc consts  --      6.6702                 6.6997                 6.7076
 IR Inten    --     12.8896                 5.1427                 4.5715

 - Thermochemistry -
 -------------------
 Temperature   298.150 Kelvin.  Pressure   1.00000 Atm.
 Atom     1 has atomic number  6 and mass  12.00000

 Molecular mass:   196.06883 amu.
 Principal axes and moments of inertia in atomic units:
                           1         2         3
     Eigenvalues --   639.016059505.91744**********
           X            1.00000   0.00000   0.00000
           Y            0.00000   1.00000   0.00000
           Z            0.00000   0.00000   1.00000
 This molecule is an asymmetric top.
 Rotational symmetry number  1.
 Warning -- assumption of classical behavior for rotation
           may cause significant error
 Rotational temperatures (Kelvin)      0.13554     0.00911     0.00854
 Rotational constants (GHZ):           2.82425     0.18985     0.17790
 Zero-point vibrational energy     481074.8 (Joules/Mol)
                                  114.97963 (Kcal/Mol)
 Warning -- explicit consideration of  17 degrees of freedom as
           vibrations may cause significant error
 Vibrational temperatures:     29.64    57.62    61.00   169.42   201.62
          (Kelvin)            336.11   345.59   506.01   556.79   592.02
                              608.03   656.27   697.17   721.49   770.85
                              789.45   804.88   913.20   940.18   962.39
                             1005.45  1027.12  1103.74  1163.01  1188.60
                             1225.09  1227.03  1251.30  1335.13  1380.09
                             1393.75  1408.58  1440.98  1456.66  1485.98
                             1513.60  1596.03  1625.33  1673.15  1712.05
                             1726.54  1750.91  1800.47  1902.54  1908.99
                             1916.48  1940.15  1962.41  2077.26  2131.70
                             2202.02  2233.40  2325.82  2336.99  2367.55
                             2381.99  3320.31  4575.07  4587.14  4603.72
                             4612.60  4613.60  4613.95  4620.97  4636.70
                             4638.28

 Zero-point correction=                           0.183232 (Hartree/Particle)
 Thermal correction to Energy=                    0.195162
 Thermal correction to Enthalpy=                  0.196106
 Thermal correction to Gibbs Free Energy=         0.142584
 Sum of electronic and zero-point Energies=           -638.556372
 Sum of electronic and thermal Energies=              -638.544442
 Sum of electronic and thermal Enthalpies=            -638.543498
 Sum of electronic and thermal Free Energies=         -638.597020

                     E (Thermal)             CV                S
                      KCal/Mol        Cal/Mol-Kelvin    Cal/Mol-Kelvin
 Total                  122.466             46.398            112.646
 Electronic               0.000              0.000              0.000
 Translational            0.889              2.981             41.725
 Rotational               0.889              2.981             32.488
 Vibrational            120.688             40.437             38.433
 Vibration     1          0.593              1.986              6.575
 Vibration     2          0.594              1.981              5.257
 Vibration     3          0.595              1.980              5.144
 Vibration     4          0.608              1.935              3.137
 Vibration     5          0.615              1.913              2.802
 Vibration     6          0.654              1.789              1.851
 Vibration     7          0.657              1.779              1.801
 Vibration     8          0.728              1.572              1.159
 Vibration     9          0.755              1.498              1.012
 Vibration    10          0.775              1.445              0.921
 Vibration    11          0.785              1.421              0.883
 Vibration    12          0.814              1.347              0.777
 Vibration    13          0.841              1.284              0.698
 Vibration    14          0.857              1.247              0.654
 Vibration    15          0.891              1.171              0.574
 Vibration    16          0.904              1.143              0.547
 Vibration    17          0.915              1.119              0.525

 Optimization completed.
    -- Stationary point found.
 Normal termination of Gaussian 16 at Sun Sep 17 16:51:12 2023.
