 Gaussian 16, Revision B.01,
 Gaussian 16:  EM64L-G16RevB.01 20-Dec-2017

 ---------------------------------------------------------
 # opt freq b3lyp/6-31+g(d) empiricaldispersion=gd3 volume
 ---------------------------------------------------------

 -------------------
 Title Card Required
 -------------------
 Symbolic Z-matrix:
 Charge =  0 Multiplicity = 1

 SCF Done:  E(RB3LYP) =  -876.541763202     A.U. after   15 cycles
 SCF Done:  E(RB3LYP) =  -876.559482133     A.U. after   13 cycles
 SCF Done:  E(RB3LYP) =  -876.554770895     A.U. after   16 cycles
 SCF Done:  E(RB3LYP) =  -876.559010884     A.U. after   14 cycles
 SCF Done:  E(RB3LYP) =  -876.560868296     A.U. after   10 cycles
 SCF Done:  E(RB3LYP) =  -876.561238487     A.U. after   14 cycles
 SCF Done:  E(RB3LYP) =  -876.560437577     A.U. after   15 cycles
 SCF Done:  E(RB3LYP) =  -876.561297911     A.U. after   15 cycles
 SCF Done:  E(RB3LYP) =  -876.561368176     A.U. after   13 cycles
 SCF Done:  E(RB3LYP) =  -876.561399647     A.U. after   15 cycles
 SCF Done:  E(RB3LYP) =  -876.561510437     A.U. after   13 cycles
 SCF Done:  E(RB3LYP) =  -876.561508202     A.U. after   12 cycles
 SCF Done:  E(RB3LYP) =  -876.561521129     A.U. after   12 cycles
 SCF Done:  E(RB3LYP) =  -876.561522374     A.U. after   11 cycles
 SCF Done:  E(RB3LYP) =  -876.561524082     A.U. after   11 cycles
 SCF Done:  E(RB3LYP) =  -876.561525533     A.U. after   12 cycles
 SCF Done:  E(RB3LYP) =  -876.561525790     A.U. after   10 cycles
 SCF Done:  E(RB3LYP) =  -876.561525807     A.U. after   11 cycles
 SCF Done:  E(RB3LYP) =  -876.561525831     A.U. after   10 cycles
 Optimization completed.
    -- Stationary point found.
 Normal termination of Gaussian 16 at Sat Sep 16 12:49:41 2023.

 ---------------------------------------------------------------------
 #N Geom=AllCheck Guess=TCheck SCRF=Check GenChk RB3LYP/6-31+G(d) Freq
 ---------------------------------------------------------------------

 Structure from the checkpoint file:  "molecule_62.chk"
 -------------------
 Title Card Required
 -------------------
 Charge =  0 Multiplicity = 1

                         Standard orientation:
 ---------------------------------------------------------------------
 Center     Atomic      Atomic             Coordinates (Angstroms)
 Number     Number       Type             X           Y           Z
 ---------------------------------------------------------------------
      1          6           0       -5.204238   -1.671828    0.007772
      2          6           0       -3.844443   -1.365297    0.009780
      3          6           0       -3.418459   -0.020689    0.000626
      4          6           0       -4.387537    1.004077   -0.010633
      5          6           0       -5.745151    0.687878   -0.012615
      6          6           0       -6.158620   -0.648755   -0.003432
      7          1           0       -5.520462   -2.711665    0.014927
      8          1           0       -3.101271   -2.157287    0.018440
      9          1           0       -4.063562    2.040750   -0.017729
     10          1           0       -6.482768    1.486124   -0.021345
     11          6           0       -2.028938    0.296900    0.002712
     12          6           0       -0.841898    0.565222    0.004766
     13          6           0        0.547741    0.878093    0.006616
     14          6           0        1.508969   -0.153071    0.019368
     15          6           0        0.985376    2.218001   -0.002005
     16          6           0        2.866025    0.160486    0.025425
     17          1           0        1.184580   -1.187519    0.028640
     18          6           0        2.347461    2.517015    0.002635
     19          1           0        0.248200    3.015184   -0.010718
     20          6           0        3.295704    1.493319    0.015932
     21          1           0        2.672115    3.553698   -0.002019
     22          1           0        4.356831    1.722252    0.023732
     23          1           0       -7.217926   -0.891596   -0.004987
     24          6           0        3.900476   -0.933794   -0.000367
     25          9           0        4.471483   -1.055552   -1.230899
     26          9           0        3.388412   -2.147575    0.314900
     27          9           0        4.916712   -0.689682    0.868396
 ---------------------------------------------------------------------

 SCF Done:  E(RB3LYP) =  -876.561525831     A.U. after    1 cycles

 The electronic state is 1-A.
 Alpha  occ. eigenvalues --  -24.75255 -24.74925 -24.74652 -10.45337 -10.24310
 Alpha  occ. eigenvalues --  -10.23632 -10.23267 -10.22686 -10.22517 -10.22374
 Alpha  occ. eigenvalues --  -10.22156 -10.21297 -10.21271 -10.21110 -10.21025
 Alpha  occ. eigenvalues --  -10.21010 -10.21002 -10.20725  -1.32011  -1.23613
 Alpha  occ. eigenvalues --   -1.23064  -0.89535  -0.87696  -0.81921  -0.79725
 Alpha  occ. eigenvalues --   -0.78545  -0.76439  -0.73601  -0.71569  -0.65955
 Alpha  occ. eigenvalues --   -0.64358  -0.62994  -0.62327  -0.59784  -0.59659
 Alpha  occ. eigenvalues --   -0.59077  -0.55148  -0.52298  -0.50726  -0.49162
 Alpha  occ. eigenvalues --   -0.49034  -0.47690  -0.47379  -0.47022  -0.46073
 Alpha  occ. eigenvalues --   -0.44988  -0.44141  -0.43934  -0.43306  -0.42089
 Alpha  occ. eigenvalues --   -0.41873  -0.40544  -0.39129  -0.38848  -0.37799
 Alpha  occ. eigenvalues --   -0.37436  -0.36541  -0.33633  -0.29105  -0.28743
 Alpha  occ. eigenvalues --   -0.28567  -0.27078  -0.23173
 Alpha virt. eigenvalues --   -0.07260  -0.04487  -0.02573  -0.01986  -0.00423
 Alpha virt. eigenvalues --    0.00435   0.01624   0.01925   0.02588   0.03121
 Alpha virt. eigenvalues --    0.03770   0.04197   0.04361   0.04915   0.05172

 Mulliken charges:
               1
     1  C   -0.119322
     2  C   -0.467927
     3  C    0.544444
     4  C   -0.364873
     5  C   -0.129056
     6  C   -0.200278
     7  H    0.185207
     8  H    0.196451
     9  H    0.193514
    10  H    0.184544
    11  C   -0.093660
    12  C   -0.077319
    13  C   -0.026549
    14  C   -0.017846
    15  C   -0.179056
    16  C   -1.050599
    17  H    0.222712
    18  C   -0.161173
    19  H    0.202104
    20  C   -0.165871
    21  H    0.192614
    22  H    0.211577
    23  H    0.183536
    24  C    1.626913
    25  F   -0.270676
    26  F   -0.328434
    27  F   -0.290978
 Sum of Mulliken charges =   0.00000

 Dipole moment (field-independent basis, Debye):
    X=             -2.8274    Y=              2.0188    Z=              0.0542  Tot=              3.4746
 Quadrupole moment (field-independent basis, Debye-Ang):
   XX=            -96.0719   YY=            -91.9904   ZZ=           -109.4969
   XY=              9.5498   XZ=              0.2759   YZ=             -0.1612

  Exact polarizability: 338.622  29.007 177.062   0.343  -0.353  94.131
 Approx polarizability: 477.367  43.307 292.422   0.857  -0.993 139.910

                      1                      2                      3
                      A                      A                      A
 Frequencies --      6.4374                18.9600                32.1994
 Red. masses --     15.4260                 4.0452                 6.6869
 Frc consts  --      0.0004                 0.0009                 0.0041
 IR Inten    --      0.0781                 0.0827                 0.2771

                      4                      5                      6
                      A                      A                      A
 Frequencies --     50.3696               113.8040               123.1754
 Red. masses --      5.3894                 6.4380                 6.2822
 Frc consts  --      0.0081                 0.0491                 0.0562
 IR Inten    --      1.1333                 0.4531                 0.1380

                      7                      8                      9
                      A                      A                      A
 Frequencies --    150.6916               209.3238               235.2102
 Red. masses --      5.1677                 7.2692                 7.7397
 Frc consts  --      0.0691                 0.1877                 0.2523
 IR Inten    --      0.0040                 0.7404                 0.2652

                     10                     11                     12
                      A                      A                      A
 Frequencies --    290.3274               325.3944               341.2189
 Red. masses --      4.9596                 6.5129                 8.6350
 Frc consts  --      0.2463                 0.4063                 0.5923
 IR Inten    --      0.1810                 1.3177                 2.7064

                     13                     14                     15
                      A                      A                      A
 Frequencies --    386.5717               412.4486               418.5632
 Red. masses --     11.0909                 2.9209                 3.9732
 Frc consts  --      0.9765                 0.2928                 0.4101
 IR Inten    --      2.1320                 0.0002                 0.0257

                     16                     17                     18
                      A                      A                      A
 Frequencies --    465.6556               485.6887               524.5696
 Red. masses --      5.0522                 7.2789                 6.4560
 Frc consts  --      0.6455                 1.0117                 1.0467
 IR Inten    --      1.3162                 1.5339                 5.1451

                     19                     20                     21
                      A                      A                      A
 Frequencies --    542.1127               551.6966               580.3765
 Red. masses --     10.1417                 8.1068                 8.7904
 Frc consts  --      1.7561                 1.4538                 1.7445
 IR Inten    --      4.4065                14.4212                 0.6263

                     22                     23                     24
                      A                      A                      A
 Frequencies --    594.9676               634.9118               648.6246
 Red. masses --      4.4207                 6.6173                 6.5790
 Frc consts  --      0.9220                 1.5716                 1.6308
 IR Inten    --      6.9341                 0.0414                 0.6559

                     25                     26                     27
                      A                      A                      A
 Frequencies --    661.7981               700.3941               707.1248
 Red. masses --      9.0014                 1.8801                 1.9836
 Frc consts  --      2.3228                 0.5434                 0.5844
 IR Inten    --     16.5962                43.4140                16.3790

                     28                     29                     30
                      A                      A                      A
 Frequencies --    711.7251               775.1023               779.0973
 Red. masses --      8.4591                 1.8670                 8.1458
 Frc consts  --      2.5246                 0.6609                 2.9132
 IR Inten    --      6.6394                48.7313                 0.8526

                     31                     32                     33
                      A                      A                      A
 Frequencies --    814.5993               853.7045               904.5690
 Red. masses --      1.5698                 1.2483                 6.3761
 Frc consts  --      0.6137                 0.5360                 3.0739
 IR Inten    --     34.2816                 0.0007                39.0908

                     34                     35                     36
                      A                      A                      A
 Frequencies --    926.5163               931.7356               934.2394
 Red. masses --      1.4727                 1.4128                 1.3923
 Frc consts  --      0.7448                 0.7226                 0.7160
 IR Inten    --     19.1853                 3.3320                 0.3697

                     37                     38                     39
                      A                      A                      A
 Frequencies --    980.4832               996.3458              1003.3546
 Red. masses --      1.3654                 1.3265                 1.2841
 Frc consts  --      0.7734                 0.7758                 0.7616
 IR Inten    --      0.0001                 0.1123                 0.0227

                     40                     41                     42
                      A                      A                      A
 Frequencies --   1012.8380              1013.0496              1052.2673
 Red. masses --      6.2727                 6.2252                 2.2658
 Frc consts  --      3.7913                 3.7641                 1.4782
 IR Inten    --      1.6135                 0.8780                 8.5076

                     43                     44                     45
                      A                      A                      A
 Frequencies --   1091.0329              1109.8897              1119.7342
 Red. masses --      3.1560                 1.6232                 3.1617
 Frc consts  --      2.2134                 1.1781                 2.3356
 IR Inten    --     88.3361                 5.1862               161.7915

                     46                     47                     48
                      A                      A                      A
 Frequencies --   1121.1586              1156.5354              1177.3482
 Red. masses --      3.7567                 4.8114                 3.0338
 Frc consts  --      2.7822                 3.7917                 2.4777
 IR Inten    --    180.0268                99.2440                86.0037

                     49                     50                     51
                      A                      A                      A
 Frequencies --   1200.6941              1214.4897              1217.1950
 Red. masses --      1.1091                 1.1341                 1.1498
 Frc consts  --      0.9421                 0.9856                 1.0037
 IR Inten    --      0.0119                 0.4948                 1.2848

                     52                     53                     54
                      A                      A                      A
 Frequencies --   1304.8899              1325.1467              1328.1971
 Red. masses --      3.1482                 3.0047                 3.1397
 Frc consts  --      3.1584                 3.1087                 3.2633
 IR Inten    --    238.9936                18.5338                10.6090

                     55                     56                     57
                      A                      A                      A
 Frequencies --   1360.7062              1364.3402              1364.6117
 Red. masses --      3.4484                 1.8516                 1.9388
 Frc consts  --      3.7619                 2.0307                 2.1272
 IR Inten    --    107.4756                 4.3044                14.6854

                     58                     59                     60
                      A                      A                      A
 Frequencies --   1469.8492              1482.2241              1523.7989
 Red. masses --      3.6275                 2.1950                 2.2488
 Frc consts  --      4.6175                 2.8412                 3.0764
 IR Inten    --     34.6399                 4.6282                 1.4805

                     61                     62                     63
                      A                      A                      A
 Frequencies --   1540.3726              1617.1974              1628.4369
 Red. masses --      2.5054                 4.9610                 5.0623
 Frc consts  --      3.5026                 7.6444                 7.9094
 IR Inten    --     37.8431                 1.4653                 9.1367

                     64                     65                     66
                      A                      A                      A
 Frequencies --   1647.5218              1658.5880              2309.0745
 Red. masses --      5.2879                 5.5845                11.9973
 Frc consts  --      8.4566                 9.0513                37.6886
 IR Inten    --      1.4852                23.1409                21.5288

                     67                     68                     69
                      A                      A                      A
 Frequencies --   3181.2118              3189.6811              3194.5798
 Red. masses --      1.0857                 1.0886                 1.0876
 Frc consts  --      6.4735                 6.5253                 6.5395
 IR Inten    --      1.8823                 4.7443                 7.0617

                     70                     71                     72
                      A                      A                      A
 Frequencies --   3200.6831              3207.8557              3211.4104
 Red. masses --      1.0919                 1.0943                 1.0919
 Frc consts  --      6.5908                 6.6349                 6.6346
 IR Inten    --     18.8790                22.8506                 4.7432

                     73                     74                     75
                      A                      A                      A
 Frequencies --   3212.6929              3219.4309              3230.7180
 Red. masses --      1.0976                 1.0960                 1.0916
 Frc consts  --      6.6745                 6.6931                 6.7130
 IR Inten    --     13.1746                 7.6825                 0.2431

 - Thermochemistry -
 -------------------
 Temperature   298.150 Kelvin.  Pressure   1.00000 Atm.
 Atom     1 has atomic number  6 and mass  12.00000

 Molecular mass:   246.06564 amu.
 Principal axes and moments of inertia in atomic units:
                           1         2         3
     Eigenvalues --  1690.50959********************
           X            0.99991   0.01306   0.00011
           Y           -0.01306   0.99991  -0.00050
           Z           -0.00011   0.00050   1.00000
 This molecule is an asymmetric top.
 Rotational symmetry number  1.
 Warning -- assumption of classical behavior for rotation
           may cause significant error
 Rotational temperatures (Kelvin)      0.05124     0.00677     0.00612
 Rotational constants (GHZ):           1.06757     0.14110     0.12746
 Zero-point vibrational energy     514893.9 (Joules/Mol)
                                  123.06260 (Kcal/Mol)
 Warning -- explicit consideration of  22 degrees of freedom as
           vibrations may cause significant error
 Vibrational temperatures:      9.26    27.28    46.33    72.47   163.74
          (Kelvin)            177.22   216.81   301.17   338.41   417.72
                              468.17   490.94   556.19   593.42   602.22
                              669.97   698.80   754.74   779.98   793.77
                              835.03   856.03   913.50   933.23   952.18
                             1007.71  1017.39  1024.01  1115.20  1120.95
                             1172.03  1228.29  1301.47  1333.05  1340.56
                             1344.16  1410.70  1433.52  1443.60  1457.25
                             1457.55  1513.98  1569.75  1596.88  1611.05
                             1613.10  1664.00  1693.94  1727.53  1747.38
                             1751.27  1877.45  1906.59  1910.98  1957.75
                             1962.98  1963.37  2114.79  2132.59  2192.41
                             2216.25  2326.79  2342.96  2370.42  2386.34
                             3322.24  4577.05  4589.24  4596.29  4605.07
                             4615.39  4620.50  4622.35  4632.04  4648.28

 Zero-point correction=                           0.196113 (Hartree/Particle)
 Thermal correction to Energy=                    0.210819
 Thermal correction to Enthalpy=                  0.211763
 Thermal correction to Gibbs Free Energy=         0.149601
 Sum of electronic and zero-point Energies=           -876.365413
 Sum of electronic and thermal Energies=              -876.350707
 Sum of electronic and thermal Enthalpies=            -876.349762
 Sum of electronic and thermal Free Energies=         -876.411925

                     E (Thermal)             CV                S
                      KCal/Mol        Cal/Mol-Kelvin    Cal/Mol-Kelvin
 Total                  132.291             56.060            130.832
 Electronic               0.000              0.000              0.000
 Translational            0.889              2.981             42.402
 Rotational               0.889              2.981             34.081
 Vibrational            130.514             50.098             54.349
 Vibration     1          0.593              1.987              8.886
 Vibration     2          0.593              1.986              6.740
 Vibration     3          0.594              1.983              5.689
 Vibration     4          0.595              1.977              4.803
 Vibration     5          0.607              1.938              3.203
 Vibration     6          0.610              1.930              3.050
 Vibration     7          0.618              1.902              2.663
 Vibration     8          0.642              1.827              2.050
 Vibration     9          0.655              1.787              1.839
 Vibration    10          0.686              1.692              1.472
 Vibration    11          0.709              1.625              1.283
 Vibration    12          0.721              1.593              1.206
 Vibration    13          0.755              1.499              1.013
 Vibration    14          0.776              1.443              0.918
 Vibration    15          0.781              1.430              0.897
 Vibration    16          0.823              1.326              0.750
 Vibration    17          0.842              1.282              0.695
 Vibration    18          0.880              1.196              0.599
 Vibration    19          0.897              1.157              0.561
 Vibration    20          0.907              1.136              0.541
 Vibration    21          0.937              1.074              0.485
 Vibration    22          0.953              1.042              0.458

 Optimization completed.
    -- Stationary point found.
 Normal termination of Gaussian 16 at Sat Sep 16 12:54:51 2023.
