 Gaussian 16, Revision B.01,
 Gaussian 16:  EM64L-G16RevB.01 20-Dec-2017

 ---------------------------------------------------------
 # opt freq b3lyp/6-31+g(d) empiricaldispersion=gd3 volume
 ---------------------------------------------------------

 -------------------
 Title Card Required
 -------------------
 Symbolic Z-matrix:
 Charge =  0 Multiplicity = 1

 SCF Done:  E(RB3LYP) =  -692.152044404     A.U. after   16 cycles
 Optimization completed.
    -- Stationary point found.
 Normal termination of Gaussian 16 at Fri Sep 22 17:00:20 2023.

 ---------------------------------------------------------------------
 #N Geom=AllCheck Guess=TCheck SCRF=Check GenChk RB3LYP/6-31+G(d) Freq
 ---------------------------------------------------------------------

 Structure from the checkpoint file:  "molecule_23.chk"
 -------------------
 Title Card Required
 -------------------
 Charge =  0 Multiplicity = 1

                         Standard orientation:
 ---------------------------------------------------------------------
 Center     Atomic      Atomic             Coordinates (Angstroms)
 Number     Number       Type             X           Y           Z
 ---------------------------------------------------------------------
      1          6           0       -4.537728    1.152919   -0.000766
      2          6           0       -3.147497    1.196439   -0.000577
      3          6           0       -2.395146    0.002262   -0.000278
      4          6           0       -3.084636   -1.226133   -0.000253
      5          6           0       -4.478229   -1.253433   -0.000449
      6          6           0       -5.230115   -0.069871   -0.000539
      7          1           0       -5.100013    2.084585   -0.001239
      8          1           0       -2.628860    2.150859   -0.000889
      9          1           0       -2.519283   -2.153583   -0.000312
     10          1           0       -4.990805   -2.212791   -0.000623
     11          6           0       -0.972010    0.039034   -0.000259
     12          6           0        0.245598    0.070248   -0.000210
     13          6           0        1.666827    0.103161   -0.000061
     14          6           0        2.355875    1.335328    0.000174
     15          6           0        2.411927   -1.100741   -0.000161
     16          6           0        3.746398    1.357502    0.000302
     17          1           0        1.788455    2.260998    0.000253
     18          6           0        3.798576   -1.069414   -0.000034
     19          1           0        1.882207   -2.048662   -0.000345
     20          6           0        4.480376    0.160758    0.000199
     21          1           0        4.271705    2.310746    0.000481
     22          1           0        4.379183   -1.987355   -0.000115
     23          6           0        5.957209    0.204930    0.000329
     24          8           0        6.684251   -0.774585    0.000245
     25          6           0       -6.740252   -0.094661    0.001433
     26          1           0       -7.146128    0.435288   -0.869617
     27          1           0       -7.142631    0.398475    0.895616
     28          1           0       -7.126807   -1.118839   -0.018774
     29          1           0        6.395925    1.226994    0.000507
 ---------------------------------------------------------------------

 SCF Done:  E(RB3LYP) =  -692.152044404     A.U. after    1 cycles

 The electronic state is 1-A.
 Alpha  occ. eigenvalues --  -19.15784 -10.28380 -10.24259 -10.23026 -10.22188
 Alpha  occ. eigenvalues --  -10.21971 -10.21834 -10.21714 -10.21691 -10.21551
 Alpha  occ. eigenvalues --  -10.21304 -10.21267 -10.21060 -10.20745 -10.20725
 Alpha  occ. eigenvalues --  -10.20640 -10.19963  -1.04971  -0.88587  -0.87920
 Alpha  occ. eigenvalues --   -0.81622  -0.79954  -0.77228  -0.76399  -0.75107
 Alpha  occ. eigenvalues --   -0.70775  -0.67016  -0.63381  -0.62600  -0.61376
 Alpha  occ. eigenvalues --   -0.58863  -0.56188  -0.53921  -0.50713  -0.48389
 Alpha  occ. eigenvalues --   -0.47964  -0.47766  -0.45847  -0.44549  -0.44218
 Alpha  occ. eigenvalues --   -0.43792  -0.43758  -0.43551  -0.41730  -0.40367
 Alpha  occ. eigenvalues --   -0.39663  -0.39204  -0.37869  -0.36976  -0.36874
 Alpha  occ. eigenvalues --   -0.35954  -0.32721  -0.28619  -0.28264  -0.27800
 Alpha  occ. eigenvalues --   -0.27068  -0.26649  -0.22784
 Alpha virt. eigenvalues --   -0.09015  -0.03865  -0.03062  -0.02599  -0.00295
 Alpha virt. eigenvalues --    0.00421   0.01008   0.01210   0.01579   0.02429
 Alpha virt. eigenvalues --    0.03066   0.03278   0.04076   0.04246   0.04414

 Mulliken charges:
               1
     1  C   -0.006249
     2  C   -0.021853
     3  C    0.208473
     4  C   -0.267234
     5  C   -0.783380
     6  C    0.292235
     7  H    0.180871
     8  H    0.194176
     9  H    0.195036
    10  H    0.179356
    11  C   -0.055918
    12  C   -0.054892
    13  C    0.039896
    14  C   -0.124605
    15  C   -0.139272
    16  C   -0.996636
    17  H    0.198457
    18  C   -0.062273
    19  H    0.199795
    20  C    0.696558
    21  H    0.189586
    22  H    0.220163
    23  C    0.008882
    24  O   -0.383110
    25  C   -0.723544
    26  H    0.226075
    27  H    0.227138
    28  H    0.207607
    29  H    0.154661
 Sum of Mulliken charges =   0.00000

 Dipole moment (field-independent basis, Debye):
    X=             -5.0914    Y=              1.7627    Z=              0.0029  Tot=              5.3879
 Quadrupole moment (field-independent basis, Debye-Ang):
   XX=           -110.3382   YY=            -89.3999   ZZ=           -104.8765
   XY=             12.2644   XZ=             -0.0184   YZ=              0.0002

  Exact polarizability: 447.219  -0.667 175.301  -0.040   0.001  96.826
 Approx polarizability: 612.961  -8.874 302.880  -0.048   0.002 144.789

 ******    1 imaginary frequencies (negative Signs) ******

                      1                      2                      3
                      A                      A                      A
 Frequencies --    -20.7583                23.3686                31.4778
 Red. masses --      1.0481                 3.8002                 5.5566
 Frc consts  --      0.0003                 0.0012                 0.0032
 IR Inten    --      0.1937                 0.6101                 0.0299

                      4                      5                      6
                      A                      A                      A
 Frequencies --     32.2870                79.5172               121.4978
 Red. masses --      5.5675                 5.6296                 6.0292
 Frc consts  --      0.0034                 0.0210                 0.0524
 IR Inten    --      0.1482                 2.6738                 1.3720

                      7                      8                      9
                      A                      A                      A
 Frequencies --    136.7851               199.4410               204.0786
 Red. masses --      4.7032                 3.3989                 7.5822
 Frc consts  --      0.0518                 0.0797                 0.1861
 IR Inten    --      5.2082                 3.1826                 1.5361

                     10                     11                     12
                      A                      A                      A
 Frequencies --    241.4912               268.0272               341.0566
 Red. masses --      5.6570                 3.6772                 2.8399
 Frc consts  --      0.1944                 0.1556                 0.1946
 IR Inten    --     10.3174                 0.4524                 0.0291

                     13                     14                     15
                      A                      A                      A
 Frequencies --    368.4917               413.6086               419.6049
 Red. masses --      4.3975                 2.9374                 2.9453
 Frc consts  --      0.3518                 0.2961                 0.3055
 IR Inten    --      7.4923                 0.0325                 0.8761

                     16                     17                     18
                      A                      A                      A
 Frequencies --    434.7876               446.5538               484.6278
 Red. masses --      7.8368                 4.0297                 6.0865
 Frc consts  --      0.8729                 0.4734                 0.8422
 IR Inten    --      5.8013                 0.2446                 1.6721

                     19                     20                     21
                      A                      A                      A
 Frequencies --    533.8824               544.4739               560.8918
 Red. masses --      2.8475                 7.9626                 3.6963
 Frc consts  --      0.4782                 1.3908                 0.6851
 IR Inten    --     25.6516                 0.2871                 2.1056

                     22                     23                     24
                      A                      A                      A
 Frequencies --    568.3147               648.4391               659.1095
 Red. masses --      6.0849                 7.0631                 7.0851
 Frc consts  --      1.1579                 1.7498                 1.8135
 IR Inten    --      0.1845                 2.0705                 0.3023

                     25                     26                     27
                      A                      A                      A
 Frequencies --    681.2895               717.5994               721.4041
 Red. masses --      5.9327                 3.5458                 3.5510
 Frc consts  --      1.6224                 1.0758                 1.0888
 IR Inten    --     12.0108                 0.1888                 2.3325

                     28                     29                     30
                      A                      A                      A
 Frequencies --    783.8624               832.8371               837.7581
 Red. masses --      4.8409                 1.4708                 5.2362
 Frc consts  --      1.7525                 0.6011                 2.1652
 IR Inten    --     32.6871                30.7355                41.2522

                     31                     32                     33
                      A                      A                      A
 Frequencies --    843.2244               848.2286               857.2291
 Red. masses --      1.4248                 1.2515                 1.3121
 Frc consts  --      0.5969                 0.5305                 0.5681
 IR Inten    --     53.3934                 0.3241                15.5764

                     34                     35                     36
                      A                      A                      A
 Frequencies --    873.2394               968.2213               972.5893
 Red. masses --      6.2241                 1.2966                 1.3203
 Frc consts  --      2.7964                 0.7161                 0.7358
 IR Inten    --     15.6939                 0.3565                 0.0794

                     37                     38                     39
                      A                      A                      A
 Frequencies --    977.1877               995.8378              1018.9233
 Red. masses --      1.3564                 1.3539                 1.4182
 Frc consts  --      0.7631                 0.7911                 0.8675
 IR Inten    --      0.0103                 0.0004                 7.9268

                     40                     41                     42
                      A                      A                      A
 Frequencies --   1027.7595              1033.7686              1038.9175
 Red. masses --      1.7655                 2.7838                 2.8630
 Frc consts  --      1.0988                 1.7528                 1.8207
 IR Inten    --      1.6443                 0.1823                 4.7001

                     43                     44                     45
                      A                      A                      A
 Frequencies --   1071.5621              1146.4632              1153.9715
 Red. masses --      1.5239                 1.4080                 1.3723
 Frc consts  --      1.0309                 1.0904                 1.0767
 IR Inten    --      4.0897                 7.4247                 9.0773

                     46                     47                     48
                      A                      A                      A
 Frequencies --   1159.8435              1206.3200              1225.6148
 Red. masses --      3.8858                 1.3724                 1.1576
 Frc consts  --      3.0798                 1.1767                 1.0245
 IR Inten    --     52.1477               107.5388                 9.2454

                     49                     50                     51
                      A                      A                      A
 Frequencies --   1237.6420              1240.1791              1325.2771
 Red. masses --      3.0484                 2.1529                 3.8109
 Frc consts  --      2.7511                 1.9509                 3.9435
 IR Inten    --      3.0172                86.2003                 0.5494

                     52                     53                     54
                      A                      A                      A
 Frequencies --   1330.5662              1342.6959              1349.1346
 Red. masses --      2.5291                 2.2199                 1.5245
 Frc consts  --      2.6381                 2.3580                 1.6349
 IR Inten    --      5.0956                44.3736                 1.6752

                     55                     56                     57
                      A                      A                      A
 Frequencies --   1354.3547              1430.7931              1438.8706
 Red. masses --      4.0133                 1.5614                 1.2353
 Frc consts  --      4.3373                 1.8832                 1.5068
 IR Inten    --     12.7170                16.9175                 0.2797

                     58                     59                     60
                      A                      A                      A
 Frequencies --   1448.2086              1457.7592              1507.6148
 Red. masses --      2.5169                 1.9942                 1.0436
 Frc consts  --      3.1101                 2.4968                 1.3975
 IR Inten    --      1.6594                 9.7585                 7.4290

                     61                     62                     63
                      A                      A                      A
 Frequencies --   1514.2286              1539.8097              1560.6930
 Red. masses --      1.1164                 2.3011                 2.7508
 Frc consts  --      1.5082                 3.2145                 3.9478
 IR Inten    --     10.4053                 5.2070                19.6369

                     64                     65                     66
                      A                      A                      A
 Frequencies --   1593.9114              1601.0632              1648.0798
 Red. masses --      6.0535                 5.0636                 5.2795
 Frc consts  --      9.0611                 7.6476                 8.4489
 IR Inten    --     44.1430                 3.2112               366.7148

                     67                     68                     69
                      A                      A                      A
 Frequencies --   1661.8364              1766.3916              2300.1556
 Red. masses --      5.5777                 9.6543                11.9968
 Frc consts  --      9.0757                17.7479                37.3965
 IR Inten    --     14.8944               489.0582               138.0257

                     70                     71                     72
                      A                      A                      A
 Frequencies --   2913.4138              3037.3671              3088.3656
 Red. masses --      1.0839                 1.0373                 1.1007
 Frc consts  --      5.4208                 5.6383                 6.1854
 IR Inten    --    163.6057                46.5418                14.8489

                     73                     74                     75
                      A                      A                      A
 Frequencies --   3118.2357              3173.9617              3176.0356
 Red. masses --      1.1010                 1.0888                 1.0890
 Frc consts  --      6.3076                 6.4624                 6.4719
 IR Inten    --     19.0028                19.5027                13.3396

                     76                     77                     78
                      A                      A                      A
 Frequencies --   3178.7726              3201.5314              3204.3128
 Red. masses --      1.0887                 1.0884                 1.0933
 Frc consts  --      6.4817                 6.5726                 6.6137
 IR Inten    --     21.6843                 1.8104                17.1267

                     79                     80                     81
                      A                      A                      A
 Frequencies --   3206.3234              3210.1312              3217.2226
 Red. masses --      1.0941                 1.0934                 1.0949
 Frc consts  --      6.6272                 6.6387                 6.6771
 IR Inten    --      2.1798                 8.5529                 3.1195

 - Thermochemistry -
 -------------------
 Temperature   298.150 Kelvin.  Pressure   1.00000 Atm.
 Atom     1 has atomic number  6 and mass  12.00000

 Molecular mass:   220.08882 amu.
 Principal axes and moments of inertia in atomic units:
                           1         2         3
     Eigenvalues --   695.04364********************
           X            1.00000   0.00304  -0.00002
           Y           -0.00304   1.00000   0.00001
           Z            0.00002  -0.00001   1.00000
 This molecule is an asymmetric top.
 Rotational symmetry number  1.
 Warning -- assumption of classical behavior for rotation
           may cause significant error
 Rotational temperatures (Kelvin)      0.12462     0.00626     0.00597
 Rotational constants (GHZ):           2.59659     0.13050     0.12436
    1 imaginary frequencies ignored.
 Zero-point vibrational energy     598912.8 (Joules/Mol)
                                  143.14360 (Kcal/Mol)
 Warning -- explicit consideration of  21 degrees of freedom as
           vibrations may cause significant error
 Vibrational temperatures:     33.62    45.29    46.45   114.41   174.81
          (Kelvin)            196.80   286.95   293.62   347.45   385.63
                              490.70   530.18   595.09   603.72   625.56
                              642.49   697.27   768.14   783.38   807.00
                              817.68   932.96   948.31   980.22  1032.47
                             1037.94  1127.80  1198.27  1205.35  1213.21
                             1220.41  1233.36  1256.40  1393.05  1399.34
                             1405.96  1432.79  1466.00  1478.72  1487.36
                             1494.77  1541.74  1649.50  1660.31  1668.76
                             1735.63  1763.39  1780.69  1784.34  1906.78
                             1914.39  1931.84  1941.10  1948.61  2058.59
                             2070.21  2083.65  2097.39  2169.12  2178.64
                             2215.44  2245.49  2293.28  2303.57  2371.22
                             2391.01  2541.44  3309.41  4191.75  4370.09
                             4443.47  4486.45  4566.62  4569.61  4573.54
                             4606.29  4610.29  4613.18  4618.66  4628.87

 Zero-point correction=                           0.228114 (Hartree/Particle)
 Thermal correction to Energy=                    0.242246
 Thermal correction to Enthalpy=                  0.243190
 Thermal correction to Gibbs Free Energy=         0.184549
 Sum of electronic and zero-point Energies=           -691.923931
 Sum of electronic and thermal Energies=              -691.909798
 Sum of electronic and thermal Enthalpies=            -691.908854
 Sum of electronic and thermal Free Energies=         -691.967495

                     E (Thermal)             CV                S
                      KCal/Mol        Cal/Mol-Kelvin    Cal/Mol-Kelvin
 Total                  152.012             54.174            123.421
 Electronic               0.000              0.000              0.000
 Translational            0.889              2.981             42.069
 Rotational               0.889              2.981             33.300
 Vibrational            150.234             48.212             48.051
 Vibration     1          0.593              1.985              6.325
 Vibration     2          0.594              1.983              5.734
 Vibration     3          0.594              1.983              5.684
 Vibration     4          0.600              1.963              3.903
 Vibration     5          0.609              1.931              3.076
 Vibration     6          0.614              1.917              2.848
 Vibration     7          0.638              1.841              2.138
 Vibration     8          0.640              1.834              2.096
 Vibration     9          0.658              1.777              1.792
 Vibration    10          0.673              1.732              1.609
 Vibration    11          0.721              1.593              1.207
 Vibration    12          0.741              1.537              1.086
 Vibration    13          0.777              1.441              0.914
 Vibration    14          0.782              1.428              0.893
 Vibration    15          0.795              1.394              0.843
 Vibration    16          0.806              1.368              0.806
 Vibration    17          0.841              1.284              0.698
 Vibration    18          0.889              1.175              0.579
 Vibration    19          0.900              1.152              0.556
 Vibration    20          0.917              1.116              0.522
 Vibration    21          0.924              1.100              0.507

                           ! Non-Optimized Parameters !
 Normal termination of Gaussian 16 at Fri Sep 22 17:09:58 2023.
