 Gaussian 16, Revision B.01,
 Gaussian 16:  EM64L-G16RevB.01 20-Dec-2017

 ---------------------------------------------------------
 # opt freq b3lyp/6-31+g(d) empiricaldispersion=gd3 volume
 ---------------------------------------------------------

 -------------
 ML molecule81
 -------------
 Symbolic Z-matrix:
 Charge =  0 Multiplicity = 1

 SCF Done:  E(RB3LYP) =  -947.455162531     A.U. after   15 cycles
 SCF Done:  E(RB3LYP) =  -941.672530057     A.U. after   22 cycles
 SCF Done:  E(RB3LYP) =  -947.365144608     A.U. after   17 cycles
 SCF Done:  E(RB3LYP) =  -947.497094512     A.U. after   14 cycles
 SCF Done:  E(RB3LYP) =  -947.507445098     A.U. after   16 cycles
 SCF Done:  E(RB3LYP) =  -947.511630331     A.U. after   16 cycles
 SCF Done:  E(RB3LYP) =  -947.524792306     A.U. after   15 cycles
 SCF Done:  E(RB3LYP) =  -947.507566809     A.U. after   18 cycles
 SCF Done:  E(RB3LYP) =  -947.534568749     A.U. after   15 cycles
 SCF Done:  E(RB3LYP) =  -947.540346929     A.U. after   17 cycles
 SCF Done:  E(RB3LYP) =  -947.578375548     A.U. after   14 cycles
 SCF Done:  E(RB3LYP) =  -947.578383343     A.U. after   12 cycles
 SCF Done:  E(RB3LYP) =  -947.578385417     A.U. after   11 cycles
 SCF Done:  E(RB3LYP) =  -947.578386217     A.U. after   11 cycles
 SCF Done:  E(RB3LYP) =  -947.578386606     A.U. after   11 cycles
 SCF Done:  E(RB3LYP) =  -947.578386934     A.U. after   12 cycles
 SCF Done:  E(RB3LYP) =  -947.578387034     A.U. after   11 cycles
 SCF Done:  E(RB3LYP) =  -947.578387110     A.U. after   11 cycles
 SCF Done:  E(RB3LYP) =  -947.578387138     A.U. after   10 cycles
 Optimization completed.
    -- Stationary point found.
 Normal termination of Gaussian 16 at Fri Sep 15 15:13:25 2023.

 ---------------------------------------------------------------------
 #N Geom=AllCheck Guess=TCheck SCRF=Check GenChk RB3LYP/6-31+G(d) Freq
 ---------------------------------------------------------------------

 Structure from the checkpoint file:  "molecule_81.chk"
 -------------
 ML molecule81
 -------------
 Charge =  0 Multiplicity = 1

                         Standard orientation:
 ---------------------------------------------------------------------
 Center     Atomic      Atomic             Coordinates (Angstroms)
 Number     Number       Type             X           Y           Z
 ---------------------------------------------------------------------
      1          6           0       -3.702812   -0.184709   -0.058519
      2          6           0       -2.659174   -0.785243   -0.765793
      3          6           0       -1.398069   -0.197417   -0.745215
      4          6           0       -1.201211    0.978963   -0.010300
      5          6           0       -2.253624    1.578814    0.689111
      6          6           0       -3.515846    0.994777    0.665709
      7          1           0       -2.842725   -1.693182   -1.327929
      8          1           0       -2.067187    2.494185    1.240917
      9          1           0       -4.347951    1.435537    1.201609
     10          8           0       -0.000012    1.651953   -0.000074
     11          6           0        1.201285    0.979084    0.010378
     12          6           0        2.253645    1.578860   -0.689158
     13          6           0        1.398126   -0.197239    0.745372
     14          6           0        3.515846    0.994741   -0.665755
     15          6           0        2.659191   -0.785152    0.765928
     16          1           0        0.576989   -0.641081    1.297857
     17          6           0        3.702799   -0.184703    0.058534
     18          1           0        4.347936    1.435411   -1.201755
     19          1           0        2.842746   -1.693056    1.328121
     20          1           0       -0.576963   -0.641429   -1.297612
     21          1           0        2.067307    2.494203   -1.241062
     22          7           0       -5.033623   -0.809138   -0.080119
     23          8           0       -5.940006   -0.250979    0.541581
     24          8           0       -5.166975   -1.855390   -0.718474
     25          7           0        5.033590   -0.809182    0.080067
     26          8           0        5.166920   -1.855441    0.718410
     27          8           0        5.939965   -0.251019   -0.541635
 ---------------------------------------------------------------------

 SCF Done:  E(RB3LYP) =  -947.578387138     A.U. after    1 cycles

 The electronic state is 1-A.
 Alpha  occ. eigenvalues --  -19.24701 -19.20581 -19.20580 -19.20578 -19.20578
 Alpha  occ. eigenvalues --  -14.59393 -14.59393 -10.30958 -10.30957 -10.27750
 Alpha  occ. eigenvalues --  -10.27750 -10.24983 -10.24982 -10.24892 -10.24892
 Alpha  occ. eigenvalues --  -10.24472 -10.24471 -10.24176 -10.24176  -1.24561
 Alpha  occ. eigenvalues --   -1.24561  -1.13636  -1.07315  -1.07314  -0.92358
 Alpha  occ. eigenvalues --   -0.91351  -0.84724  -0.82133  -0.80568  -0.80400
 Alpha  occ. eigenvalues --   -0.74959  -0.70727  -0.67311  -0.66893  -0.64041
 Alpha  occ. eigenvalues --   -0.61632  -0.59927  -0.58117  -0.57260  -0.55178
 Alpha  occ. eigenvalues --   -0.55173  -0.54613  -0.53948  -0.51908  -0.51286
 Alpha  occ. eigenvalues --   -0.49795  -0.49641  -0.48223  -0.47834  -0.47493
 Alpha  occ. eigenvalues --   -0.45567  -0.44448  -0.44431  -0.41591  -0.40700
 Alpha  occ. eigenvalues --   -0.39057  -0.38189  -0.33252  -0.33242  -0.33134
 Alpha  occ. eigenvalues --   -0.33123  -0.31331  -0.31329  -0.31064  -0.30519
 Alpha  occ. eigenvalues --   -0.30404  -0.27480
 Alpha virt. eigenvalues --   -0.11785  -0.11045  -0.06609  -0.05198  -0.03412
 Alpha virt. eigenvalues --   -0.01948  -0.01775   0.00044   0.00504   0.00667
 Alpha virt. eigenvalues --    0.01623   0.02121   0.03056   0.03588   0.04142

 Mulliken charges:
               1
     1  C   -0.098931
     2  C   -0.104755
     3  C    0.228947
     4  C    0.103598
     5  C   -0.492557
     6  C    0.006283
     7  H    0.237222
     8  H    0.210649
     9  H    0.236991
    10  O   -0.314019
    11  C    0.103889
    12  C   -0.492635
    13  C    0.228842
    14  C    0.006252
    15  C   -0.104707
    16  H    0.212158
    17  C   -0.098957
    18  H    0.236991
    19  H    0.237226
    20  H    0.212155
    21  H    0.210655
    22  N   -0.319334
    23  O   -0.033587
    24  O   -0.029735
    25  N   -0.319311
    26  O   -0.029737
    27  O   -0.033594
 Sum of Mulliken charges =   0.00000

 Dipole moment (field-independent basis, Debye):
    X=              0.0004    Y=              3.2426    Z=              0.0002  Tot=              3.2426
 Quadrupole moment (field-independent basis, Debye-Ang):
   XX=           -173.2863   YY=           -108.5292   ZZ=           -105.3772
   XY=              0.0002   XZ=             -3.2402   YZ=             -0.0003

  Exact polarizability: 295.037  -0.001 158.343 -16.160   0.000 117.288
 Approx polarizability: 394.237  -0.003 298.466 -42.311  -0.001 208.385

                      1                      2                      3
                      A                      A                      A
 Frequencies --     18.8252                31.3023                42.4656
 Red. masses --      6.9667                 8.1851                11.3032
 Frc consts  --      0.0015                 0.0047                 0.0120
 IR Inten    --      2.3380                 0.7471                 1.0858

                      4                      5                      6
                      A                      A                      A
 Frequencies --     59.7391                72.2684               108.7439
 Red. masses --      7.5860                 5.0369                 8.8993
 Frc consts  --      0.0160                 0.0155                 0.0620
 IR Inten    --      0.2948                 0.4651                 2.7739

                      7                      8                      9
                      A                      A                      A
 Frequencies --    127.9615               203.5346               219.9225
 Red. masses --      7.5273                10.2391                 9.7680
 Frc consts  --      0.0726                 0.2499                 0.2784
 IR Inten    --      0.0924                 1.6607                 7.2155

                     10                     11                     12
                      A                      A                      A
 Frequencies --    270.8234               299.5155               319.4939
 Red. masses --      8.0293                 6.7688                 6.2669
 Frc consts  --      0.3470                 0.3578                 0.3769
 IR Inten    --      2.5066                 3.4122                 0.0006

                     13                     14                     15
                      A                      A                      A
 Frequencies --    370.5914               409.3536               424.9213
 Red. masses --      9.9818                 7.9785                 3.0497
 Frc consts  --      0.8077                 0.7877                 0.3244
 IR Inten    --      5.3176                 4.8779                 1.7177

                     16                     17                     18
                      A                      A                      A
 Frequencies --    429.2119               457.5649               500.8298
 Red. masses --      3.0903                 5.2632                 3.0075
 Frc consts  --      0.3354                 0.6492                 0.4445
 IR Inten    --      0.2788                 2.3224                25.0884

                     19                     20                     21
                      A                      A                      A
 Frequencies --    514.4709               533.0082               535.4161
 Red. masses --      4.0171                 7.2926                 6.9985
 Frc consts  --      0.6265                 1.2207                 1.1821
 IR Inten    --      8.0192                 2.8705                 0.6731

                     22                     23                     24
                      A                      A                      A
 Frequencies --    620.9491               636.1543               661.0238
 Red. masses --      6.1852                 7.2463                 6.6449
 Frc consts  --      1.4051                 1.7278                 1.7107
 IR Inten    --      2.5642                 4.1379                 2.0030

                     25                     26                     27
                      A                      A                      A
 Frequencies --    671.2976               687.9676               706.0871
 Red. masses --      8.1555                 4.0048                 3.7981
 Frc consts  --      2.1654                 1.1168                 1.1157
 IR Inten    --     13.1655                22.4220                 3.8359

                     28                     29                     30
                      A                      A                      A
 Frequencies --    751.1956               754.9345               792.3340
 Red. masses --      6.2186                 6.8838                 6.1759
 Frc consts  --      2.0675                 2.3115                 2.2844
 IR Inten    --     32.1089                10.1602                 0.4033

                     31                     32                     33
                      A                      A                      A
 Frequencies --    833.8449               838.5720               847.9071
 Red. masses --      1.2797                 1.2456                 7.5065
 Frc consts  --      0.5242                 0.5161                 3.1797
 IR Inten    --      0.3970                 0.0028                45.2737

                     34                     35                     36
                      A                      A                      A
 Frequencies --    866.3034               867.0317               883.0970
 Red. masses --      6.4013                 1.7651                 2.0766
 Frc consts  --      2.8305                 0.7818                 0.9542
 IR Inten    --      1.7291                62.5259                32.5282

                     37                     38                     39
                      A                      A                      A
 Frequencies --    900.0683               982.6848               984.5995
 Red. masses --      6.3135                 1.3062                 1.2999
 Frc consts  --      3.0135                 0.7432                 0.7425
 IR Inten    --     95.8995                 1.6819                 0.5454

                     40                     41                     42
                      A                      A                      A
 Frequencies --    990.6507               992.1350              1031.0962
 Red. masses --      1.3391                 1.3365                 2.8435
 Frc consts  --      0.7743                 0.7751                 1.7812
 IR Inten    --      0.8544                 0.1040                 0.0714

                     43                     44                     45
                      A                      A                      A
 Frequencies --   1031.6313              1131.4355              1131.9221
 Red. masses --      2.7516                 3.4086                 3.4832
 Frc consts  --      1.7254                 2.5709                 2.6294
 IR Inten    --      7.8799               158.8266                18.0079

                     46                     47                     48
                      A                      A                      A
 Frequencies --   1146.7928              1149.2001              1202.6597
 Red. masses --      1.2702                 1.2542                 1.4089
 Frc consts  --      0.9842                 0.9759                 1.2006
 IR Inten    --      8.9469                13.9799                10.2704

                     49                     50                     51
                      A                      A                      A
 Frequencies --   1206.6349              1235.2544              1288.0938
 Red. masses --      1.2483                 2.8060                 5.0876
 Frc consts  --      1.0708                 2.5226                 4.9734
 IR Inten    --    147.5500                 2.1406              1108.1989

                     52                     53                     54
                      A                      A                      A
 Frequencies --   1325.6707              1335.8189              1365.9444
 Red. masses --      1.4297                 1.2969                 5.9102
 Frc consts  --      1.4803                 1.3635                 6.4971
 IR Inten    --      1.6055                 3.0571                40.9436

                     55                     56                     57
                      A                      A                      A
 Frequencies --   1377.0392              1377.5524              1381.5281
 Red. masses --     10.5243                12.1421                13.6835
 Frc consts  --     11.7580                13.5756                15.3875
 IR Inten    --     31.7259               603.0930                96.9751

                     58                     59                     60
                      A                      A                      A
 Frequencies --   1454.8502              1464.3611              1531.7839
 Red. masses --      3.2307                 3.3287                 2.3122
 Frc consts  --      4.0288                 4.2056                 3.1964
 IR Inten    --      3.2144                 0.4970               255.2112

                     61                     62                     63
                      A                      A                      A
 Frequencies --   1536.1286              1590.4690              1594.3538
 Red. masses --      2.3583                11.7132                12.3011
 Frc consts  --      3.2787                17.4572                18.4231
 IR Inten    --      6.7856               162.1893               202.7197

                     64                     65                     66
                      A                      A                      A
 Frequencies --   1635.8814              1651.8545              1652.6691
 Red. masses --      5.6525                 6.3587                 8.3088
 Frc consts  --      8.9124                10.2226                13.3709
 IR Inten    --    282.8960                75.4569               107.6852

                     67                     68                     69
                      A                      A                      A
 Frequencies --   1662.4763              3219.8228              3220.9925
 Red. masses --      7.3984                 1.0909                 1.0904
 Frc consts  --     12.0476                 6.6632                 6.6654
 IR Inten    --     22.5320                 7.0591                 0.3488

                     70                     71                     72
                      A                      A                      A
 Frequencies --   3221.8073              3222.1512              3245.5325
 Red. masses --      1.0909                 1.0909                 1.0934
 Frc consts  --      6.6720                 6.6733                 6.7858
 IR Inten    --      0.4582                 0.8604                 2.4670

                     73                     74                     75
                      A                      A                      A
 Frequencies --   3245.6302              3247.2931              3247.3164
 Red. masses --      1.0934                 1.0936                 1.0936
 Frc consts  --      6.7862                 6.7945                 6.7947
 IR Inten    --      3.1713                 4.9121                 0.8995

 - Thermochemistry -
 -------------------
 Temperature   298.150 Kelvin.  Pressure   1.00000 Atm.
 Atom     1 has atomic number  6 and mass  12.00000

 Molecular mass:   260.04332 amu.
 Principal axes and moments of inertia in atomic units:
                           1         2         3
     Eigenvalues --  1460.83016********************
           X            1.00000   0.00000  -0.00177
           Y            0.00000   1.00000   0.00000
           Z            0.00177   0.00000   1.00000
 This molecule is an asymmetric top.
 Rotational symmetry number  1.
 Warning -- assumption of classical behavior for rotation
           may cause significant error
 Rotational temperatures (Kelvin)      0.05929     0.00631     0.00595
 Rotational constants (GHZ):           1.23542     0.13149     0.12401
 Zero-point vibrational energy     499934.1 (Joules/Mol)
                                  119.48711 (Kcal/Mol)
 Warning -- explicit consideration of  21 degrees of freedom as
           vibrations may cause significant error
 Vibrational temperatures:     27.09    45.04    61.10    85.95   103.98
          (Kelvin)            156.46   184.11   292.84   316.42   389.65
                              430.94   459.68   533.20   588.97   611.37
                              617.54   658.33   720.58   740.21   766.88
                              770.34   893.41   915.28   951.07   965.85
                              989.83  1015.90  1080.80  1086.18  1139.99
                             1199.72  1206.52  1219.95  1246.42  1247.47
                             1270.58  1295.00  1413.86  1416.62  1425.33
                             1427.46  1483.52  1484.29  1627.88  1628.58
                             1649.98  1653.44  1730.36  1736.08  1777.26
                             1853.28  1907.34  1921.95  1965.29  1981.25
                             1981.99  1987.71  2093.20  2106.89  2203.90
                             2210.15  2288.33  2293.92  2353.67  2376.65
                             2377.82  2391.93  4632.61  4634.29  4635.46
                             4635.96  4669.60  4669.74  4672.13  4672.16

 Zero-point correction=                           0.190415 (Hartree/Particle)
 Thermal correction to Energy=                    0.205471
 Thermal correction to Enthalpy=                  0.206415
 Thermal correction to Gibbs Free Energy=         0.144883
 Sum of electronic and zero-point Energies=           -947.387972
 Sum of electronic and thermal Energies=              -947.372916
 Sum of electronic and thermal Enthalpies=            -947.371972
 Sum of electronic and thermal Free Energies=         -947.433505

                     E (Thermal)             CV                S
                      KCal/Mol        Cal/Mol-Kelvin    Cal/Mol-Kelvin
 Total                  128.935             57.077            129.506
 Electronic               0.000              0.000              0.000
 Translational            0.889              2.981             42.567
 Rotational               0.889              2.981             34.033
 Vibrational            127.158             51.115             52.906
 Vibration     1          0.593              1.986              6.754
 Vibration     2          0.594              1.983              5.745
 Vibration     3          0.595              1.980              5.141
 Vibration     4          0.597              1.973              4.466
 Vibration     5          0.598              1.967              4.091
 Vibration     6          0.606              1.942              3.291
 Vibration     7          0.611              1.925              2.976
 Vibration     8          0.639              1.835              2.101
 Vibration     9          0.647              1.811              1.960
 Vibration    10          0.675              1.727              1.591
 Vibration    11          0.692              1.675              1.420
 Vibration    12          0.705              1.636              1.313
 Vibration    13          0.743              1.533              1.077
 Vibration    14          0.774              1.450              0.929
 Vibration    15          0.787              1.416              0.875
 Vibration    16          0.791              1.407              0.861
 Vibration    17          0.816              1.344              0.773
 Vibration    18          0.856              1.248              0.656
 Vibration    19          0.870              1.218              0.623
 Vibration    20          0.888              1.177              0.581
 Vibration    21          0.890              1.172              0.575

 Optimization completed.
    -- Stationary point found.
 Normal termination of Gaussian 16 at Fri Sep 15 15:19:38 2023.
