 Gaussian 16, Revision B.01,
 Gaussian 16:  EM64L-G16RevB.01 20-Dec-2017

 ---------------------------------------------------------
 # opt freq b3lyp/6-31+g(d) empiricaldispersion=gd3 volume
 ---------------------------------------------------------

 -------------------
 Title Card Required
 -------------------
 Symbolic Z-matrix:
 Charge =  0 Multiplicity = 1

 SCF Done:  E(RB3LYP) =  -999.094863553     A.U. after   14 cycles
 Optimization completed.
    -- Stationary point found.
 Normal termination of Gaussian 16 at Sun Sep 17 16:39:45 2023.

 ---------------------------------------------------------------------
 #N Geom=AllCheck Guess=TCheck SCRF=Check GenChk RB3LYP/6-31+G(d) Freq
 ---------------------------------------------------------------------

 Structure from the checkpoint file:  "molecule_15.chk"
 -------------------
 Title Card Required
 -------------------
 Charge =  0 Multiplicity = 1

                         Standard orientation:
 ---------------------------------------------------------------------
 Center     Atomic      Atomic             Coordinates (Angstroms)
 Number     Number       Type             X           Y           Z
 ---------------------------------------------------------------------
      1          6           0        5.109299   -1.210023    0.000004
      2          6           0        3.715268   -1.215113    0.000270
      3          6           0        2.998458   -0.000226    0.000179
      4          6           0        3.714942    1.214994   -0.000128
      5          6           0        5.108878    1.210349   -0.000378
      6          6           0        5.811280    0.000232   -0.000308
      7          1           0        5.649799   -2.153078    0.000035
      8          1           0        3.168312   -2.153500    0.000517
      9          1           0        3.167547    2.153120   -0.000156
     10          1           0        5.649189    2.153515   -0.000621
     11          1           0        6.898089    0.000455   -0.000531
     12          6           0        1.573135   -0.000308    0.000289
     13          6           0        0.355876   -0.000082    0.000336
     14          6           0       -1.068288   -0.000046    0.000216
     15          6           0       -1.788477   -1.212597   -0.000052
     16          6           0       -1.788426    1.212543    0.000338
     17          6           0       -3.181294   -1.215926   -0.000192
     18          1           0       -1.246714   -2.153610   -0.000126
     19          6           0       -3.181237    1.215937    0.000198
     20          1           0       -1.246617    2.153530    0.000531
     21          6           0       -3.868572    0.000018   -0.000062
     22          1           0       -3.731664   -2.151300   -0.000389
     23          1           0       -3.731572    2.151331    0.000282
     24         17           0       -5.625966    0.000060   -0.000224
 ---------------------------------------------------------------------

 SCF Done:  E(RB3LYP) =  -999.094863553     A.U. after    2 cycles

 The electronic state is 1-A.
 Alpha  occ. eigenvalues -- -101.56074 -10.26723 -10.23494 -10.22963 -10.21873
 Alpha  occ. eigenvalues --  -10.21872 -10.21812 -10.21812 -10.20979 -10.20978
 Alpha  occ. eigenvalues --  -10.20828 -10.20761 -10.20740 -10.20500 -10.20273
 Alpha  occ. eigenvalues --   -9.47589  -7.23994  -7.23027  -7.22993  -0.90385
 Alpha  occ. eigenvalues --   -0.87408  -0.85614  -0.79820  -0.77342  -0.77134
 Alpha  occ. eigenvalues --   -0.76153  -0.72261  -0.64284  -0.63565  -0.62040
 Alpha  occ. eigenvalues --   -0.61693  -0.56136  -0.54187  -0.49655  -0.48799
 Alpha  occ. eigenvalues --   -0.48781  -0.46745  -0.45698  -0.44744  -0.44632
 Alpha  occ. eigenvalues --   -0.43653  -0.41139  -0.39124  -0.39105  -0.37903
 Alpha  occ. eigenvalues --   -0.37173  -0.36255  -0.35927  -0.32262  -0.31859
 Alpha  occ. eigenvalues --   -0.28265  -0.27771  -0.27598  -0.26804  -0.22368
 Alpha virt. eigenvalues --   -0.06622  -0.03199  -0.02304  -0.01504  -0.00514
 Alpha virt. eigenvalues --    0.00474   0.01169   0.01654   0.02343   0.02548
 Alpha virt. eigenvalues --    0.03595   0.04274   0.04585   0.05015   0.05038

 Mulliken charges:
               1
     1  C   -0.131716
     2  C   -0.319954
     3  C    0.239142
     4  C   -0.319972
     5  C   -0.132059
     6  C   -0.208081
     7  H    0.183524
     8  H    0.192956
     9  H    0.192964
    10  H    0.183528
    11  H    0.182339
    12  C   -0.062722
    13  C   -0.024015
    14  C   -0.223527
    15  C   -0.072563
    16  C   -0.073114
    17  C   -0.481918
    18  H    0.199573
    19  C   -0.481859
    20  H    0.199570
    21  C    0.312531
    22  H    0.203491
    23  H    0.203491
    24  Cl   0.238391
 Sum of Mulliken charges =   0.00000

 Dipole moment (field-independent basis, Debye):
    X=              2.1014    Y=              0.0001    Z=             -0.0002  Tot=              2.1014
 Quadrupole moment (field-independent basis, Debye-Ang):
   XX=            -90.4703   YY=            -82.7116   ZZ=           -100.7849
   XY=              0.0003   XZ=             -0.0023   YZ=              0.0001

  Exact polarizability: 373.625  -0.005 160.203  -0.004   0.000  88.604
 Approx polarizability: 515.491  -0.016 273.096  -0.008   0.000 130.552

                      1                      2                      3
                      A                      A                      A
 Frequencies --     21.1438                36.5045                36.6534
 Red. masses --      3.6459                 8.5109                 6.2731
 Frc consts  --      0.0010                 0.0067                 0.0050
 IR Inten    --      0.0000                 0.0925                 0.0654

                      4                      5                      6
                      A                      A                      A
 Frequencies --    104.8729               132.9209               207.7102
 Red. masses --      6.5875                 5.9888                 6.6458
 Frc consts  --      0.0427                 0.0623                 0.1689
 IR Inten    --      1.0399                 0.2569                 0.1168

                      7                      8                      9
                      A                      A                      A
 Frequencies --    222.1792               294.5370               339.9253
 Red. masses --      9.0389                 6.9316                 5.7317
 Frc consts  --      0.2629                 0.3543                 0.3902
 IR Inten    --      0.4550                 0.6804                 1.1813

                     10                     11                     12
                      A                      A                      A
 Frequencies --    411.8991               416.3882               435.2860
 Red. masses --      2.9172                 2.9876                 4.9567
 Frc consts  --      0.2916                 0.3052                 0.5533
 IR Inten    --      0.0000                 0.0000                 1.0372

                     13                     14                     15
                      A                      A                      A
 Frequencies --    436.2966               481.3682               531.2793
 Red. masses --     10.3565                 6.5306                 2.9713
 Frc consts  --      1.1615                 0.8916                 0.4941
 IR Inten    --     25.1831                 1.5581                23.0929

                     16                     17                     18
                      A                      A                      A
 Frequencies --    547.0889               571.5770               610.0436
 Red. masses --      7.9863                 4.1559                 7.6594
 Frc consts  --      1.4084                 0.8000                 1.6795
 IR Inten    --      0.0052                 2.2218                 0.3929

                     19                     20                     21
                      A                      A                      A
 Frequencies --    634.7066               649.6569               699.0874
 Red. masses --      6.5996                 7.3336                 1.9879
 Frc consts  --      1.5664                 1.8236                 0.5724
 IR Inten    --      0.0028                 0.3213                33.4480

                     22                     23                     24
                      A                      A                      A
 Frequencies --    713.5662               742.7850               769.3417
 Red. masses --      3.9640                 6.7231                 1.7578
 Frc consts  --      1.1892                 2.1855                 0.6130
 IR Inten    --      2.0200                17.9126                45.9004

                     25                     26                     27
                      A                      A                      A
 Frequencies --    833.8864               839.7635               853.0568
 Red. masses --      1.2468                 1.5477                 1.2484
 Frc consts  --      0.5108                 0.6431                 0.5353
 IR Inten    --      0.0000                57.5361                 0.0000

                     28                     29                     30
                      A                      A                      A
 Frequencies --    858.9700               929.1634               965.0071
 Red. masses --      6.0781                 1.4056                 1.3103
 Frc consts  --      2.6423                 0.7150                 0.7189
 IR Inten    --      1.8387                 3.1355                 0.0218

                     31                     32                     33
                      A                      A                      A
 Frequencies --    973.0859               979.4896              1002.0369
 Red. masses --      1.3494                 1.3644                 1.2817
 Frc consts  --      0.7528                 0.7712                 0.7582
 IR Inten    --      0.0000                 0.0000                 0.0282

                     34                     35                     36
                      A                      A                      A
 Frequencies --   1012.6140              1030.3418              1052.0384
 Red. masses --      6.2627                 3.8567                 2.2746
 Frc consts  --      3.7835                 2.4123                 1.4833
 IR Inten    --      0.0586                29.9691                 5.5236

                     37                     38                     39
                      A                      A                      A
 Frequencies --   1105.0457              1109.4894              1143.7340
 Red. masses --      3.3120                 1.6227                 1.3927
 Frc consts  --      2.3828                 1.1769                 1.0734
 IR Inten    --     75.6700                 5.2761                 5.4861

                     40                     41                     42
                      A                      A                      A
 Frequencies --   1164.2864              1200.2608              1216.9746
 Red. masses --      3.3552                 1.1086                 1.1454
 Frc consts  --      2.6797                 0.9409                 0.9995
 IR Inten    --      4.6391                 0.0044                 0.1001

                     43                     44                     45
                      A                      A                      A
 Frequencies --   1219.5103              1316.8099              1326.4227
 Red. masses --      1.1615                 8.0210                 3.3216
 Frc consts  --      1.0178                 8.1946                 3.4432
 IR Inten    --      0.0311                 0.2443                 0.1011

                     46                     47                     48
                      A                      A                      A
 Frequencies --   1333.8578              1348.3983              1364.1582
 Red. masses --      1.3100                 3.7773                 1.6971
 Frc consts  --      1.3733                 4.0464                 1.8607
 IR Inten    --      0.0310                 5.1505                 0.4268

                     49                     50                     51
                      A                      A                      A
 Frequencies --   1438.7658              1481.8102              1524.8762
 Red. masses --      2.7310                 2.1881                 2.1125
 Frc consts  --      3.3309                 2.8308                 2.8941
 IR Inten    --      4.3429                 3.9919                22.1324

                     52                     53                     54
                      A                      A                      A
 Frequencies --   1542.5896              1597.3477              1616.7600
 Red. masses --      2.5190                 6.5906                 4.9701
 Frc consts  --      3.5317                 9.9078                 7.6543
 IR Inten    --    107.3708                 0.0959                 1.4017

                     55                     56                     57
                      A                      A                      A
 Frequencies --   1638.5574              1652.0641              2307.1226
 Red. masses --      5.3507                 5.4390                11.9973
 Frc consts  --      8.4642                 8.7463                37.6250
 IR Inten    --     10.7000                 7.5215                 1.5064

                     58                     59                     60
                      A                      A                      A
 Frequencies --   3180.1622              3188.5625              3199.9712
 Red. masses --      1.0856                 1.0885                 1.0919
 Frc consts  --      6.4687                 6.5206                 6.5877
 IR Inten    --      2.3748                 5.1744                20.3585

                     61                     62                     63
                      A                      A                      A
 Frequencies --   3203.2465              3203.8137              3207.0792
 Red. masses --      1.0888                 1.0888                 1.0943
 Frc consts  --      6.5824                 6.5845                 6.6311
 IR Inten    --      5.9134                 1.6755                24.8539

                     64                     65                     66
                      A                      A                      A
 Frequencies --   3211.9392              3219.8657              3221.5095
 Red. masses --      1.0975                 1.0946                 1.0954
 Frc consts  --      6.6711                 6.6865                 6.6981
 IR Inten    --     13.8372                 7.8647                 1.3994

 - Thermochemistry -
 -------------------
 Temperature   298.150 Kelvin.  Pressure   1.00000 Atm.
 Atom     1 has atomic number  6 and mass  12.00000

 Molecular mass:   212.03928 amu.
 Principal axes and moments of inertia in atomic units:
                           1         2         3
     Eigenvalues --   638.22913********************
           X            1.00000   0.00000   0.00000
           Y            0.00000   1.00000   0.00000
           Z            0.00000   0.00000   1.00000
 This molecule is an asymmetric top.
 Rotational symmetry number  1.
 Warning -- assumption of classical behavior for rotation
           may cause significant error
 Rotational temperatures (Kelvin)      0.13571     0.00739     0.00701
 Rotational constants (GHZ):           2.82773     0.15391     0.14596
 Zero-point vibrational energy     477676.4 (Joules/Mol)
                                  114.16741 (Kcal/Mol)
 Warning -- explicit consideration of  18 degrees of freedom as
           vibrations may cause significant error
 Vibrational temperatures:     30.42    52.52    52.74   150.89   191.24
          (Kelvin)            298.85   319.67   423.77   489.08   592.63
                              599.09   626.28   627.73   692.58   764.39
                              787.14   822.37   877.72   913.20   934.71
                             1005.83  1026.66  1068.70  1106.91  1199.78
                             1208.23  1227.36  1235.87  1336.86  1388.43
                             1400.05  1409.27  1441.71  1456.93  1482.43
                             1513.65  1589.91  1596.31  1645.58  1675.15
                             1726.91  1750.96  1754.60  1894.60  1908.43
                             1919.12  1940.04  1962.72  2070.06  2131.99
                             2193.96  2219.44  2298.23  2326.16  2357.52
                             2376.95  3319.43  4575.54  4587.63  4604.04
                             4608.76  4609.57  4614.27  4621.26  4632.67
                             4635.03

 Zero-point correction=                           0.181937 (Hartree/Particle)
 Thermal correction to Energy=                    0.194242
 Thermal correction to Enthalpy=                  0.195186
 Thermal correction to Gibbs Free Energy=         0.140397
 Sum of electronic and zero-point Energies=           -998.912926
 Sum of electronic and thermal Energies=              -998.900622
 Sum of electronic and thermal Enthalpies=            -998.899678
 Sum of electronic and thermal Free Energies=         -998.954467

                     E (Thermal)             CV                S
                      KCal/Mol        Cal/Mol-Kelvin    Cal/Mol-Kelvin
 Total                  121.888             47.224            115.314
 Electronic               0.000              0.000              0.000
 Translational            0.889              2.981             41.958
 Rotational               0.889              2.981             32.892
 Vibrational            120.111             41.262             40.463
 Vibration     1          0.593              1.985              6.524
 Vibration     2          0.594              1.982              5.440
 Vibration     3          0.594              1.982              5.432
 Vibration     4          0.605              1.945              3.362
 Vibration     5          0.613              1.920              2.903
 Vibration     6          0.641              1.829              2.064
 Vibration     7          0.648              1.807              1.941
 Vibration     8          0.689              1.684              1.448
 Vibration     9          0.720              1.596              1.213
 Vibration    10          0.776              1.444              0.920
 Vibration    11          0.780              1.435              0.904
 Vibration    12          0.796              1.393              0.842
 Vibration    13          0.797              1.391              0.838
 Vibration    14          0.838              1.291              0.706
 Vibration    15          0.886              1.181              0.584
 Vibration    16          0.902              1.146              0.550
 Vibration    17          0.928              1.093              0.501
 Vibration    18          0.969              1.011              0.433

 Optimization completed.
    -- Stationary point found.
 Normal termination of Gaussian 16 at Sun Sep 17 16:43:01 2023.
