 Gaussian 16, Revision B.01,
 Gaussian 16:  EM64L-G16RevB.01 20-Dec-2017

 ----------------------------------------------------------------------
 # opt freq b3lyp/6-31+g(d) geom=connectivity empiricaldispersion=gd3 v
 olume
 ----------------------------------------------------------------------

 --------------
 ML molecule101
 --------------
 Symbolic Z-matrix:
 Charge =  0 Multiplicity = 1

 SCF Done:  E(RB3LYP) =  -577.777327314     A.U. after   15 cycles
 SCF Done:  E(RB3LYP) =  -577.805609027     A.U. after   15 cycles
 SCF Done:  E(RB3LYP) =  -577.833609413     A.U. after   15 cycles
 SCF Done:  E(RB3LYP) =  -577.850785302     A.U. after   13 cycles
 SCF Done:  E(RB3LYP) =  -577.858160252     A.U. after   15 cycles
 SCF Done:  E(RB3LYP) =  -577.864503934     A.U. after   15 cycles
 SCF Done:  E(RB3LYP) =  -577.867362572     A.U. after   15 cycles
 SCF Done:  E(RB3LYP) =  -577.869545802     A.U. after   15 cycles
 SCF Done:  E(RB3LYP) =  -577.870059387     A.U. after   15 cycles
 SCF Done:  E(RB3LYP) =  -577.870482247     A.U. after   13 cycles
 SCF Done:  E(RB3LYP) =  -577.870562809     A.U. after   13 cycles
 SCF Done:  E(RB3LYP) =  -577.870629306     A.U. after   10 cycles
 SCF Done:  E(RB3LYP) =  -577.870615882     A.U. after   12 cycles
 SCF Done:  E(RB3LYP) =  -577.870623132     A.U. after   12 cycles
 SCF Done:  E(RB3LYP) =  -577.870628058     A.U. after   11 cycles
 SCF Done:  E(RB3LYP) =  -577.870632096     A.U. after   11 cycles
 SCF Done:  E(RB3LYP) =  -577.870633478     A.U. after   12 cycles
 SCF Done:  E(RB3LYP) =  -577.870634547     A.U. after   11 cycles
 SCF Done:  E(RB3LYP) =  -577.870634573     A.U. after    9 cycles
 Optimization completed.
    -- Stationary point found.
 Normal termination of Gaussian 16 at Fri Sep 15 09:31:37 2023.

 ---------------------------------------------------------------------
 #N Geom=AllCheck Guess=TCheck SCRF=Check GenChk RB3LYP/6-31+G(d) Freq
 ---------------------------------------------------------------------

 Structure from the checkpoint file:  "molecule_101.chk"
 --------------
 ML molecule101
 --------------
 Charge =  0 Multiplicity = 1

                         Standard orientation:
 ---------------------------------------------------------------------
 Center     Atomic      Atomic             Coordinates (Angstroms)
 Number     Number       Type             X           Y           Z
 ---------------------------------------------------------------------
      1          6           0        4.130258    0.452341    0.475258
      2          6           0        3.027157    0.912805    1.201432
      3          6           0        1.742597    0.439533    0.922959
      4          6           0        1.567959   -0.498006   -0.100641
      5          6           0        2.661185   -0.968442   -0.832002
      6          6           0        3.940968   -0.492368   -0.538594
      7          1           0        3.163882    1.641258    1.996754
      8          1           0        2.492022   -1.700013   -1.616358
      9          1           0        4.790856   -0.858656   -1.108810
     10          8           0        0.339439   -1.061665   -0.391160
     11          6           0       -0.813430   -0.297824   -0.324554
     12          6           0       -0.874001    1.005198   -0.828793
     13          6           0       -1.946026   -0.916857    0.203336
     14          6           0       -2.093292    1.682340   -0.783415
     15          6           0       -3.173719   -0.241392    0.239677
     16          1           0       -1.854127   -1.931207    0.582737
     17          6           0       -3.233426    1.069205   -0.254376
     18          1           0       -2.154559    2.697082   -1.168758
     19          1           0        0.885212    0.790096    1.488543
     20          1           0        0.014569    1.472539   -1.240746
     21          1           0        5.126392    0.824181    0.698737
     22          1           0       -4.175373    1.611944   -0.226731
     23          6           0       -4.405447   -0.930778    0.781217
     24          1           0       -4.851021   -1.588265    0.022611
     25          1           0       -4.166941   -1.553082    1.651414
     26          1           0       -5.171127   -0.207081    1.080861
 ---------------------------------------------------------------------

 SCF Done:  E(RB3LYP) =  -577.870634573     A.U. after    1 cycles

 The electronic state is 1-A.
 Alpha  occ. eigenvalues --  -19.19618 -10.25877 -10.25726 -10.20934 -10.20267
 Alpha  occ. eigenvalues --  -10.20210 -10.20146 -10.19894 -10.19700 -10.19634
 Alpha  occ. eigenvalues --  -10.19625 -10.19327 -10.19286 -10.19100  -1.08367
 Alpha  occ. eigenvalues --   -0.86859  -0.85512  -0.78096  -0.76813  -0.75583
 Alpha  occ. eigenvalues --   -0.73086  -0.69475  -0.63979  -0.61919  -0.60935
 Alpha  occ. eigenvalues --   -0.57934  -0.54078  -0.51338  -0.49332  -0.48672
 Alpha  occ. eigenvalues --   -0.47535  -0.45189  -0.44280  -0.43197  -0.42634
 Alpha  occ. eigenvalues --   -0.41964  -0.41327  -0.40122  -0.38765  -0.37424
 Alpha  occ. eigenvalues --   -0.36544  -0.36254  -0.35717  -0.34181  -0.32955
 Alpha  occ. eigenvalues --   -0.26247  -0.25575  -0.25244  -0.22484
 Alpha virt. eigenvalues --   -0.02477  -0.01800  -0.01022  -0.00066   0.00285
 Alpha virt. eigenvalues --    0.01127   0.02006   0.02619   0.02941   0.03812
 Alpha virt. eigenvalues --    0.04250   0.04507   0.05232   0.05370   0.06150

 Mulliken charges:
               1
     1  C   -0.179089
     2  C   -0.270394
     3  C    0.232617
     4  C   -0.139742
     5  C   -0.137621
     6  C   -0.288079
     7  H    0.181348
     8  H    0.190742
     9  H    0.181707
    10  O   -0.348809
    11  C   -0.033939
    12  C    0.182310
    13  C   -0.082526
    14  C   -0.182236
    15  C    0.398975
    16  H    0.185263
    17  C   -0.599293
    18  H    0.180864
    19  H    0.198672
    20  H    0.195949
    21  H    0.177822
    22  H    0.173908
    23  C   -0.866614
    24  H    0.228138
    25  H    0.213388
    26  H    0.206641
 Sum of Mulliken charges =   0.00000

 Dipole moment (field-independent basis, Debye):
    X=             -0.4040    Y=              0.7885    Z=              0.3700  Tot=              0.9601
 Quadrupole moment (field-independent basis, Debye-Ang):
   XX=            -72.2249   YY=            -81.2522   ZZ=            -83.7035
   XY=              1.1122   XZ=             -2.4299   YZ=              0.8239

  Exact polarizability: 219.902   1.870 134.979  -8.885   3.637 113.677
 Approx polarizability: 295.784   1.958 226.671 -18.676  11.216 181.742

                      1                      2                      3
                      A                      A                      A
 Frequencies --     19.1566                29.9974                39.8370
 Red. masses --      4.4325                 1.0477                 3.8002
 Frc consts  --      0.0010                 0.0006                 0.0036
 IR Inten    --      1.1488                 0.3338                 0.2955

                      4                      5                      6
                      A                      A                      A
 Frequencies --     88.6980               201.9918               212.6137
 Red. masses --      4.4546                 3.4994                 4.0407
 Frc consts  --      0.0206                 0.0841                 0.1076
 IR Inten    --      0.2106                 3.3613                 0.1203

                      7                      8                      9
                      A                      A                      A
 Frequencies --    242.4845               265.2459               351.8932
 Red. masses --      4.0015                 4.3787                 4.5823
 Frc consts  --      0.1386                 0.1815                 0.3343
 IR Inten    --      0.3440                 1.4954                 2.7144

                     10                     11                     12
                      A                      A                      A
 Frequencies --    422.1036               423.9902               452.4144
 Red. masses --      3.4842                 3.2690                 2.9386
 Frc consts  --      0.3658                 0.3462                 0.3544
 IR Inten    --      1.4377                 0.3019                 5.4766

                     13                     14                     15
                      A                      A                      A
 Frequencies --    496.6988               525.9219               550.0954
 Red. masses --      3.3040                 5.0634                 3.9794
 Frc consts  --      0.4803                 0.8252                 0.7095
 IR Inten    --     12.6191                 1.0180                 3.6951

                     16                     17                     18
                      A                      A                      A
 Frequencies --    586.1252               624.9996               641.6271
 Red. masses --      7.5555                 5.6856                 5.4010
 Frc consts  --      1.5293                 1.3085                 1.3101
 IR Inten    --      0.1071                 0.9492                 0.6783

                     19                     20                     21
                      A                      A                      A
 Frequencies --    696.8543               702.5865               741.8413
 Red. masses --      2.5163                 2.3025                 3.0800
 Frc consts  --      0.7200                 0.6696                 0.9987
 IR Inten    --     24.7111                13.7048                12.0480

                     22                     23                     24
                      A                      A                      A
 Frequencies --    773.4974               794.1253               828.0548
 Red. masses --      1.7143                 1.6648                 4.5463
 Frc consts  --      0.6043                 0.6186                 1.8366
 IR Inten    --     67.4462                22.1715                12.9389

                     25                     26                     27
                      A                      A                      A
 Frequencies --    840.9164               884.6853               905.6755
 Red. masses --      1.2679                 1.3114                 1.4394
 Frc consts  --      0.5283                 0.6047                 0.6956
 IR Inten    --      0.6931                 6.9222                 6.4881

                     28                     29                     30
                      A                      A                      A
 Frequencies --    914.7042               960.5950               973.2145
 Red. masses --      1.4948                 2.8956                 1.3480
 Frc consts  --      0.7369                 1.5742                 0.7522
 IR Inten    --      3.7647                44.8269                 0.4781

                     31                     32                     33
                      A                      A                      A
 Frequencies --    979.5935               992.6056              1014.3521
 Red. masses --      1.2964                 1.2630                 5.8878
 Frc consts  --      0.7330                 0.7332                 3.5693
 IR Inten    --      0.4243                 0.2723                 0.3316

                     34                     35                     36
                      A                      A                      A
 Frequencies --   1015.0966              1036.5705              1049.9238
 Red. masses --      6.1643                 1.5959                 2.0197
 Frc consts  --      3.7424                 1.0103                 1.3118
 IR Inten    --      0.1427                 2.9478                11.4149

                     37                     38                     39
                      A                      A                      A
 Frequencies --   1071.0993              1108.0549              1125.1901
 Red. masses --      1.5183                 1.5266                 1.5818
 Frc consts  --      1.0263                 1.1043                 1.1799
 IR Inten    --      6.7561                 7.1920                 4.3326

                     40                     41                     42
                      A                      A                      A
 Frequencies --   1173.3580              1194.9910              1203.6367
 Red. masses --      1.7661                 1.1178                 1.1612
 Frc consts  --      1.4326                 0.9405                 0.9912
 IR Inten    --     24.6711                 3.3073                31.4638

                     43                     44                     45
                      A                      A                      A
 Frequencies --   1206.9236              1248.4223              1290.3407
 Red. masses --      1.1650                 3.7093                 4.9482
 Frc consts  --      0.9999                 3.4061                 4.8541
 IR Inten    --      0.3705               137.1094               371.8395

                     46                     47                     48
                      A                      A                      A
 Frequencies --   1321.6365              1341.7448              1360.3169
 Red. masses --      1.9022                 1.9335                 2.8073
 Frc consts  --      1.9576                 2.0509                 3.0607
 IR Inten    --      4.3537                 0.1768                 6.2075

                     49                     50                     51
                      A                      A                      A
 Frequencies --   1363.8641              1438.4332              1473.5680
 Red. masses --      2.5828                 1.2331                 2.3114
 Frc consts  --      2.8306                 1.5032                 2.9571
 IR Inten    --      3.9163                 0.4696                34.9991

                     52                     53                     54
                      A                      A                      A
 Frequencies --   1496.1161              1512.0986              1518.6696
 Red. masses --      2.1987                 1.0747                 1.2681
 Frc consts  --      2.8997                 1.4477                 1.7231
 IR Inten    --      1.6224                10.2697                15.8983

                     55                     56                     57
                      A                      A                      A
 Frequencies --   1529.4149              1533.6722              1631.4738
 Red. masses --      2.1680                 2.2039                 5.3143
 Frc consts  --      2.9879                 3.0543                 8.3340
 IR Inten    --    160.1358                44.5589                84.5112

                     58                     59                     60
                      A                      A                      A
 Frequencies --   1639.7033              1646.9228              1663.2701
 Red. masses --      5.9723                 5.6346                 6.0616
 Frc consts  --      9.4608                 9.0044                 9.8801
 IR Inten    --     23.6996               104.0567                20.4486

                     61                     62                     63
                      A                      A                      A
 Frequencies --   3036.0591              3091.2645              3116.2545
 Red. masses --      1.0392                 1.0972                 1.1024
 Frc consts  --      5.6439                 6.1772                 6.3074
 IR Inten    --     36.1342                18.2831                18.6008

                     64                     65                     66
                      A                      A                      A
 Frequencies --   3176.6246              3180.3247              3189.0960
 Red. masses --      1.0871                 1.0856                 1.0895
 Frc consts  --      6.4630                 6.4695                 6.5282
 IR Inten    --      6.5299                 1.6163                13.1388

                     67                     68                     69
                      A                      A                      A
 Frequencies --   3193.1044              3195.3394              3203.6382
 Red. masses --      1.0919                 1.0918                 1.0929
 Frc consts  --      6.5596                 6.5678                 6.6089
 IR Inten    --     32.5014                 2.5436                31.1364

                     70                     71                     72
                      A                      A                      A
 Frequencies --   3212.9969              3215.4751              3216.0814
 Red. masses --      1.0941                 1.0949                 1.0942
 Frc consts  --      6.6548                 6.6699                 6.6678
 IR Inten    --     12.5912                 2.3146                 3.0823

 - Thermochemistry -
 -------------------
 Temperature   298.150 Kelvin.  Pressure   1.00000 Atm.
 Atom     1 has atomic number  6 and mass  12.00000

 Molecular mass:   184.08882 amu.
 Principal axes and moments of inertia in atomic units:
                           1         2         3
     Eigenvalues --   889.498315346.864345603.93112
           X            0.99996   0.00633  -0.00637
           Y           -0.00638   0.99995  -0.00827
           Z            0.00632   0.00831   0.99995
 This molecule is an asymmetric top.
 Rotational symmetry number  1.
 Warning -- assumption of classical behavior for rotation
           may cause significant error
 Rotational temperatures (Kelvin)      0.09737     0.01620     0.01546
 Rotational constants (GHZ):           2.02894     0.33753     0.32205
 Zero-point vibrational energy     558655.9 (Joules/Mol)
                                  133.52196 (Kcal/Mol)
 Warning -- explicit consideration of  16 degrees of freedom as
           vibrations may cause significant error
 Vibrational temperatures:     27.56    43.16    57.32   127.62   290.62
          (Kelvin)            305.90   348.88   381.63   506.30   607.31
                              610.03   650.92   714.64   756.68   791.46
                              843.30   899.24   923.16  1002.62  1010.87
                             1067.34  1112.89  1142.57  1191.39  1209.89
                             1272.86  1303.07  1316.06  1382.08  1400.24
                             1409.42  1428.14  1459.43  1460.50  1491.39
                             1510.61  1541.07  1594.24  1618.90  1688.20
                             1719.33  1731.76  1736.49  1796.20  1856.51
                             1901.54  1930.47  1957.19  1962.30  2069.58
                             2120.14  2152.58  2175.57  2185.03  2200.49
                             2206.61  2347.33  2359.17  2369.55  2393.07
                             4368.21  4447.64  4483.60  4570.45  4575.78
                             4588.40  4594.17  4597.38  4609.32  4622.79
                             4626.35  4627.22

 Zero-point correction=                           0.212781 (Hartree/Particle)
 Thermal correction to Energy=                    0.224670
 Thermal correction to Enthalpy=                  0.225614
 Thermal correction to Gibbs Free Energy=         0.172170
 Sum of electronic and zero-point Energies=           -577.657854
 Sum of electronic and thermal Energies=              -577.645965
 Sum of electronic and thermal Enthalpies=            -577.645021
 Sum of electronic and thermal Free Energies=         -577.698465

                     E (Thermal)             CV                S
                      KCal/Mol        Cal/Mol-Kelvin    Cal/Mol-Kelvin
 Total                  140.982             46.051            112.483
 Electronic               0.000              0.000              0.000
 Translational            0.889              2.981             41.537
 Rotational               0.889              2.981             31.655
 Vibrational            139.205             40.089             39.291
 Vibration     1          0.593              1.986              6.720
 Vibration     2          0.594              1.984              5.830
 Vibration     3          0.594              1.981              5.267
 Vibration     4          0.602              1.957              3.689
 Vibration     5          0.639              1.837              2.115
 Vibration     6          0.644              1.822              2.021
 Vibration     7          0.659              1.775              1.785
 Vibration     8          0.671              1.737              1.627
 Vibration     9          0.728              1.571              1.158
 Vibration    10          0.784              1.422              0.885
 Vibration    11          0.786              1.418              0.879
 Vibration    12          0.811              1.356              0.789
 Vibration    13          0.852              1.257              0.666
 Vibration    14          0.881              1.193              0.596
 Vibration    15          0.905              1.139              0.544
 Vibration    16          0.943              1.061              0.474

                           ! Non-Optimized Parameters !
 Normal termination of Gaussian 16 at Fri Sep 15 09:35:16 2023.
