 Gaussian 16, Revision B.01,
 Gaussian 16:  EM64L-G16RevB.01 20-Dec-2017

 ---------------------------------------------------------
 # opt freq b3lyp/6-31+g(d) empiricaldispersion=gd3 volume
 ---------------------------------------------------------

 -------------------
 Title Card Required
 -------------------
 Symbolic Z-matrix:
 Charge =  0 Multiplicity = 1

 SCF Done:  E(RB3LYP) =  -621.587141097     A.U. after   15 cycles
 SCF Done:  E(RB3LYP) =  -621.631786961     A.U. after   14 cycles
 SCF Done:  E(RB3LYP) =  -621.643102529     A.U. after   17 cycles
 SCF Done:  E(RB3LYP) =  -621.693144155     A.U. after   16 cycles
 SCF Done:  E(RB3LYP) =  -621.715054423     A.U. after   16 cycles
 SCF Done:  E(RB3LYP) =  -621.719426156     A.U. after   15 cycles
 SCF Done:  E(RB3LYP) =  -621.724330881     A.U. after   14 cycles
 SCF Done:  E(RB3LYP) =  -621.712940518     A.U. after   16 cycles
 SCF Done:  E(RB3LYP) =  -621.726052469     A.U. after   14 cycles
 SCF Done:  E(RB3LYP) =  -621.726333746     A.U. after   13 cycles
 SCF Done:  E(RB3LYP) =  -621.732951603     A.U. after   12 cycles
 SCF Done:  E(RB3LYP) =  -621.732954017     A.U. after   11 cycles
 SCF Done:  E(RB3LYP) =  -621.732955460     A.U. after   11 cycles
 SCF Done:  E(RB3LYP) =  -621.732956478     A.U. after   12 cycles
 SCF Done:  E(RB3LYP) =  -621.732957493     A.U. after   12 cycles
 SCF Done:  E(RB3LYP) =  -621.732957687     A.U. after   12 cycles
 SCF Done:  E(RB3LYP) =  -621.732957662     A.U. after   11 cycles
 SCF Done:  E(RB3LYP) =  -621.732957651     A.U. after   10 cycles
 SCF Done:  E(RB3LYP) =  -621.732957666     A.U. after   11 cycles
 Optimization completed on the basis of negligible forces.
    -- Stationary point found.
 Normal termination of Gaussian 16 at Sat Sep 16 13:57:45 2023.

 ---------------------------------------------------------------------
 #N Geom=AllCheck Guess=TCheck SCRF=Check GenChk RB3LYP/6-31+G(d) Freq
 ---------------------------------------------------------------------

 Structure from the checkpoint file:  "molecule_70.chk"
 -------------------
 Title Card Required
 -------------------
 Charge =  0 Multiplicity = 1

                         Standard orientation:
 ---------------------------------------------------------------------
 Center     Atomic      Atomic             Coordinates (Angstroms)
 Number     Number       Type             X           Y           Z
 ---------------------------------------------------------------------
      1          6           0       -3.438483    1.533600   -0.347968
      2          6           0       -2.784782    0.660321    0.762481
      3          6           0       -3.457693   -0.708247    0.855169
      4          6           0       -3.264156   -1.773792    0.065310
      5          6           0       -2.304882   -1.921138   -1.087203
      6          1           0       -4.204584   -0.787800    1.644802
      7          1           0       -3.853125   -2.666267    0.287041
      8          6           0       -1.326585    0.576886    0.608308
      9          6           0       -0.122848    0.498580    0.470073
     10          6           0        1.289565    0.365906    0.300351
     11          6           0        1.971992    1.091676   -0.695419
     12          6           0        2.034025   -0.506226    1.118963
     13          6           0        3.348229    0.946881   -0.860534
     14          1           0        1.412353    1.764852   -1.338875
     15          6           0        3.409578   -0.642382    0.942539
     16          1           0        1.522248   -1.076639    1.889022
     17          6           0        4.093668    0.081528   -0.045720
     18          1           0        3.853204    1.515645   -1.638861
     19          1           0        3.962870   -1.325337    1.584184
     20          6           0        5.590666   -0.044581   -0.207703
     21          1           0        6.117413    0.685203    0.422539
     22          1           0        5.943533   -1.040695    0.082378
     23          1           0        5.899340    0.136072   -1.243548
     24          6           0       -1.139496   -2.870709   -0.751513
     25          1           0       -0.536481   -2.457988    0.064021
     26          1           0       -1.507696   -3.856664   -0.440407
     27          1           0       -0.486549   -3.011332   -1.621281
     28          6           0       -2.931383    2.978263   -0.368814
     29          1           0       -3.119777    3.476485    0.591145
     30          1           0       -1.852599    3.015469   -0.557902
     31          1           0       -3.435112    3.557209   -1.151948
     32          1           0       -3.262538    1.052054   -1.317425
     33          1           0       -2.856688   -2.320704   -1.951037
     34          1           0       -1.901100   -0.950871   -1.389356
     35          1           0       -4.523473    1.517549   -0.181701
     36          1           0       -2.975714    1.174371    1.717276
 ---------------------------------------------------------------------

 SCF Done:  E(RB3LYP) =  -621.732957665     A.U. after    1 cycles

 The electronic state is 1-A.
 Alpha  occ. eigenvalues --  -10.21995 -10.21649 -10.20690 -10.19934 -10.19900
 Alpha  occ. eigenvalues --  -10.19592 -10.19575 -10.19281 -10.19135 -10.19094
 Alpha  occ. eigenvalues --  -10.18943 -10.18751 -10.18462 -10.18298 -10.17759
 Alpha  occ. eigenvalues --  -10.17332  -0.86651  -0.83215  -0.79455  -0.78460
 Alpha  occ. eigenvalues --   -0.75138  -0.74314  -0.73350  -0.69974  -0.67559
 Alpha  occ. eigenvalues --   -0.62273  -0.61375  -0.60911  -0.59257  -0.54649
 Alpha  occ. eigenvalues --   -0.53006  -0.50211  -0.47143  -0.46749  -0.45837
 Alpha  occ. eigenvalues --   -0.44463  -0.43591  -0.42731  -0.42559  -0.42535
 Alpha  occ. eigenvalues --   -0.42356  -0.39997  -0.39421  -0.39349  -0.37253
 Alpha  occ. eigenvalues --   -0.36894  -0.36142  -0.35852  -0.35408  -0.34745
 Alpha  occ. eigenvalues --   -0.34491  -0.33696  -0.33090  -0.29352  -0.26125
 Alpha  occ. eigenvalues --   -0.25853  -0.25008  -0.22112
 Alpha virt. eigenvalues --   -0.03262  -0.01581  -0.00315   0.00561   0.00806
 Alpha virt. eigenvalues --    0.01569   0.01975   0.02216   0.02862   0.03702
 Alpha virt. eigenvalues --    0.03967   0.04204   0.04658   0.04981   0.05362

 Mulliken charges:
               1
     1  C   -0.327124
     2  C   -0.620488
     3  C   -0.286917
     4  C    0.067528
     5  C   -0.423447
     6  H    0.173524
     7  H    0.169102
     8  C    0.426383
     9  C    0.027211
    10  C    0.229536
    11  C   -0.363781
    12  C   -0.364456
    13  C   -0.228794
    14  H    0.189185
    15  C   -0.183285
    16  H    0.189943
    17  C    0.315026
    18  H    0.174652
    19  H    0.175256
    20  C   -0.739810
    21  H    0.227346
    22  H    0.209023
    23  H    0.208713
    24  C   -0.770872
    25  H    0.225339
    26  H    0.197407
    27  H    0.199326
    28  C   -0.739891
    29  H    0.202914
    30  H    0.218602
    31  H    0.199273
    32  H    0.210559
    33  H    0.196894
    34  H    0.206376
    35  H    0.202208
    36  H    0.207539
 Sum of Mulliken charges =   0.00000

 Dipole moment (field-independent basis, Debye):
    X=              0.4175    Y=             -0.0143    Z=             -0.3794  Tot=              0.5643
 Quadrupole moment (field-independent basis, Debye-Ang):
   XX=            -87.4193   YY=            -98.7260   ZZ=            -98.0898
   XY=             -1.4175   XZ=             -1.8207   YZ=             -2.6596

  Exact polarizability: 272.570  -9.202 170.653 -12.016  -9.010 148.359
 Approx polarizability: 369.808 -18.486 241.121 -25.235 -19.777 237.724

                      1                      2                      3
                      A                      A                      A
 Frequencies --      2.5993                27.9341                29.0476
 Red. masses --      3.4167                 1.1972                 2.5938
 Frc consts  --      0.0000                 0.0006                 0.0013
 IR Inten    --      0.0045                 0.4085                 0.1866

                      4                      5                      6
                      A                      A                      A
 Frequencies --     38.8690                55.3955                75.6808
 Red. masses --      3.1627                 3.9357                 2.9041
 Frc consts  --      0.0028                 0.0071                 0.0098
 IR Inten    --      0.2376                 0.7599                 0.3773

                      7                      8                      9
                      A                      A                      A
 Frequencies --    103.6893               111.0309               145.1951
 Red. masses --      2.9533                 2.7945                 2.2447
 Frc consts  --      0.0187                 0.0203                 0.0279
 IR Inten    --      0.2734                 0.0446                 0.0788

                     10                     11                     12
                      A                      A                      A
 Frequencies --    158.9352               207.3189               232.0727
 Red. masses --      2.6703                 1.9588                 1.6209
 Frc consts  --      0.0397                 0.0496                 0.0514
 IR Inten    --      0.0470                 0.0849                 0.0554

                     13                     14                     15
                      A                      A                      A
 Frequencies --    255.3362               273.5867               290.8538
 Red. masses --      1.4077                 2.3458                 2.9209
 Frc consts  --      0.0541                 0.1035                 0.1456
 IR Inten    --      0.1542                 0.9524                 0.7171

                     16                     17                     18
                      A                      A                      A
 Frequencies --    336.8938               344.3722               385.4347
 Red. masses --      4.1811                 2.7615                 2.9879
 Frc consts  --      0.2796                 0.1930                 0.2615
 IR Inten    --      1.8926                 0.0621                 0.1890

                     19                     20                     21
                      A                      A                      A
 Frequencies --    414.8301               418.1700               463.2381
 Red. masses --      2.9553                 3.8482                 3.8385
 Frc consts  --      0.2996                 0.3965                 0.4853
 IR Inten    --      0.0042                 3.0318                 2.4149

                     22                     23                     24
                      A                      A                      A
 Frequencies --    494.7408               531.8989               553.5006
 Red. masses --      4.1229                 3.8294                 3.2997
 Frc consts  --      0.5946                 0.6383                 0.5956
 IR Inten    --      3.0241                 1.0359                10.0751

                     25                     26                     27
                      A                      A                      A
 Frequencies --    566.2267               623.0464               659.8716
 Red. masses --      4.0825                 4.0823                 7.0225
 Frc consts  --      0.7712                 0.9337                 1.8016
 IR Inten    --      0.6837                 3.6302                 0.1724

                     28                     29                     30
                      A                      A                      A
 Frequencies --    721.2525               730.7157               748.4252
 Red. masses --      3.2826                 1.8075                 1.8319
 Frc consts  --      1.0061                 0.5686                 0.6046
 IR Inten    --      1.2870                22.8870                23.3526

                     31                     32                     33
                      A                      A                      A
 Frequencies --    783.2202               808.7065               832.1883
 Red. masses --      2.5994                 1.3232                 1.5947
 Frc consts  --      0.9395                 0.5099                 0.6507
 IR Inten    --      5.9303                 4.7733                38.4275

                     34                     35                     36
                      A                      A                      A
 Frequencies --    835.7441               848.5490               860.9841
 Red. masses --      2.4970                 1.2489                 1.8935
 Frc consts  --      1.0276                 0.5298                 0.8270
 IR Inten    --      7.3605                 0.1655                 2.6013

                     37                     38                     39
                      A                      A                      A
 Frequencies --    890.1523               961.2622               965.4074
 Red. masses --      1.9532                 2.5245                 1.2967
 Frc consts  --      0.9119                 1.3744                 0.7121
 IR Inten    --      4.5108                 5.9925                 0.7273

                     40                     41                     42
                      A                      A                      A
 Frequencies --    974.6456               997.4220              1000.3678
 Red. masses --      1.3568                 1.7770                 1.4547
 Frc consts  --      0.7594                 1.0416                 0.8577
 IR Inten    --      0.0507                 0.9744                 1.5521

                     43                     44                     45
                      A                      A                      A
 Frequencies --   1020.6216              1034.4096              1040.2790
 Red. masses --      1.4040                 2.5481                 2.6490
 Frc consts  --      0.8617                 1.6064                 1.6890
 IR Inten    --      0.0594                 1.7638                 2.7242

                     46                     47                     48
                      A                      A                      A
 Frequencies --   1053.3242              1070.7037              1100.4899
 Red. masses --      2.7908                 1.5235                 1.6661
 Frc consts  --      1.8243                 1.0290                 1.1889
 IR Inten    --      0.0932                14.2942                 4.9172

                     49                     50                     51
                      A                      A                      A
 Frequencies --   1108.5357              1128.0750              1153.0471
 Red. masses --      1.7355                 1.8168                 1.3490
 Frc consts  --      1.2566                 1.3622                 1.0567
 IR Inten    --      1.8964                 2.6431                 5.7551

                     52                     53                     54
                      A                      A                      A
 Frequencies --   1159.1982              1224.0211              1236.5255
 Red. masses --      1.8176                 1.1356                 3.3259
 Frc consts  --      1.4390                 1.0024                 2.9962
 IR Inten    --      1.9408                 1.5324                 1.7960

                     55                     56                     57
                      A                      A                      A
 Frequencies --   1277.7825              1287.8257              1292.1219
 Red. masses --      1.2754                 1.7436                 1.6226
 Frc consts  --      1.2270                 1.7038                 1.5961
 IR Inten    --      0.8737                 7.3489                 1.0333

                     58                     59                     60
                      A                      A                      A
 Frequencies --   1316.8908              1320.2773              1323.0769
 Red. masses --      1.1811                 1.1800                 4.5838
 Frc consts  --      1.2068                 1.2119                 4.7277
 IR Inten    --      0.6838                 0.1004                 0.0220

                     61                     62                     63
                      A                      A                      A
 Frequencies --   1348.9224              1355.7206              1373.1007
 Red. masses --      1.4835                 1.3253                 1.3146
 Frc consts  --      1.5905                 1.4352                 1.4603
 IR Inten    --      0.0724                 3.1000                 3.5949

                     64                     65                     66
                      A                      A                      A
 Frequencies --   1383.9242              1425.3214              1435.5996
 Red. masses --      1.5843                 1.2508                 1.2426
 Frc consts  --      1.7877                 1.4971                 1.5088
 IR Inten    --     23.6857                 2.9135                 5.1098

                     67                     68                     69
                      A                      A                      A
 Frequencies --   1437.5087              1438.6161              1447.3708
 Red. masses --      1.3287                 1.2427                 2.4955
 Frc consts  --      1.6177                 1.5153                 3.0802
 IR Inten    --      5.6512                 0.5097                 0.9788

                     70                     71                     72
                      A                      A                      A
 Frequencies --   1510.7840              1511.2916              1512.8461
 Red. masses --      1.0699                 1.1039                 1.0518
 Frc consts  --      1.4388                 1.4855                 1.4183
 IR Inten    --      0.9763                 9.1515                 6.9185

                     73                     74                     75
                      A                      A                      A
 Frequencies --   1513.2592              1519.2744              1519.6867
 Red. masses --      1.0562                 1.0463                 1.0453
 Frc consts  --      1.4251                 1.4229                 1.4223
 IR Inten    --      4.3906                 7.9803                 6.7238

                     76                     77                     78
                      A                      A                      A
 Frequencies --   1527.5138              1528.0194              1554.5580
 Red. masses --      1.0670                 1.0691                 2.5077
 Frc consts  --      1.4668                 1.4708                 3.5706
 IR Inten    --      1.5940                10.6798                42.8545

                     79                     80                     81
                      A                      A                      A
 Frequencies --   1602.9900              1662.0268              1720.9446
 Red. masses --      5.1727                 5.5647                 6.4348
 Frc consts  --      7.8313                 9.0567                11.2284
 IR Inten    --      1.1543                 0.2824                 6.1282

                     82                     83                     84
                      A                      A                      A
 Frequencies --   2327.8817              2998.1297              3020.9366
 Red. masses --     11.9398                 1.0821                 1.0716
 Frc consts  --     38.1214                 5.7306                 5.7616
 IR Inten    --      3.6196                21.0759                33.5392

                     85                     86                     87
                      A                      A                      A
 Frequencies --   3032.3101              3036.9720              3038.5984
 Red. masses --      1.0404                 1.0372                 1.0362
 Frc consts  --      5.6365                 5.6363                 5.6369
 IR Inten    --     45.4390                48.3649                28.9239

                     88                     89                     90
                      A                      A                      A
 Frequencies --   3044.6615              3080.4928              3087.9312
 Red. masses --      1.0612                 1.1010                 1.0954
 Frc consts  --      5.7958                 6.1556                 6.1542
 IR Inten    --     33.7645                 8.7428                20.2632

                     91                     92                     93
                      A                      A                      A
 Frequencies --   3093.9582              3102.3773              3111.0556
 Red. masses --      1.0977                 1.1013                 1.0917
 Frc consts  --      6.1910                 6.2451                 6.2254
 IR Inten    --     14.5413                36.9088                20.6596

                     94                     95                     96
                      A                      A                      A
 Frequencies --   3113.6914              3114.8626              3121.9175
 Red. masses --      1.1026                 1.1021                 1.0967
 Frc consts  --      6.2983                 6.3002                 6.2975
 IR Inten    --     17.6037                50.4988                12.6171

                     97                     98                     99
                      A                      A                      A
 Frequencies --   3128.7078              3156.1255              3171.3379
 Red. masses --      1.0913                 1.0937                 1.0885
 Frc consts  --      6.2938                 6.4188                 6.4503
 IR Inten    --     48.7640                63.4971                14.8573

                    100                    101                    102
                      A                      A                      A
 Frequencies --   3172.1425              3200.3001              3202.3580
 Red. masses --      1.0886                 1.0931                 1.0939
 Frc consts  --      6.4538                 6.5964                 6.6097
 IR Inten    --     24.3469                21.2926                 1.1525

 - Thermochemistry -
 -------------------
 Temperature   298.150 Kelvin.  Pressure   1.00000 Atm.
 Atom     1 has atomic number  6 and mass  12.00000

 Molecular mass:   212.15650 amu.
 Principal axes and moments of inertia in atomic units:
                           1         2         3
     Eigenvalues --  2075.503927328.711708551.33879
           X            0.99997  -0.00777   0.00090
           Y            0.00777   0.99995  -0.00603
           Z           -0.00085   0.00604   0.99998
 This molecule is an asymmetric top.
 Rotational symmetry number  1.
 Warning -- assumption of classical behavior for rotation
           may cause significant error
 Rotational temperatures (Kelvin)      0.04173     0.01182     0.01013
 Rotational constants (GHZ):           0.86954     0.24626     0.21105
 Zero-point vibrational energy     822983.2 (Joules/Mol)
                                  196.69770 (Kcal/Mol)
 Warning -- explicit consideration of  25 degrees of freedom as
           vibrations may cause significant error
 Vibrational temperatures:      3.74    40.19    41.79    55.92    79.70
          (Kelvin)            108.89   149.19   159.75   208.90   228.67
                              298.29   333.90   367.37   393.63   418.47
                              484.72   495.47   554.55   596.85   601.65
                              666.50   711.82   765.28   796.36   814.67
                              896.42   949.41  1037.72  1051.34  1076.82
                             1126.88  1163.55  1197.33  1202.45  1220.87
                             1238.76  1280.73  1383.04  1389.01  1402.30
                             1435.07  1439.31  1468.45  1488.28  1496.73
                             1515.50  1540.50  1583.36  1594.94  1623.05
                             1658.98  1667.83  1761.09  1779.08  1838.44
                             1852.89  1859.08  1894.71  1899.58  1903.61
                             1940.80  1950.58  1975.59  1991.16  2050.72
                             2065.51  2068.25  2069.85  2082.44  2173.68
                             2174.41  2176.65  2177.24  2185.90  2186.49
                             2197.75  2198.48  2236.66  2306.35  2391.29
                             2476.06  3349.30  4313.64  4346.45  4362.82
                             4369.53  4371.87  4380.59  4432.14  4442.84
                             4451.52  4463.63  4476.12  4479.91  4481.59
                             4491.74  4501.51  4540.96  4562.85  4564.01
                             4604.52  4607.48

 Zero-point correction=                           0.313458 (Hartree/Particle)
 Thermal correction to Energy=                    0.331042
 Thermal correction to Enthalpy=                  0.331986
 Thermal correction to Gibbs Free Energy=         0.263043
 Sum of electronic and zero-point Energies=           -621.419500
 Sum of electronic and thermal Energies=              -621.401916
 Sum of electronic and thermal Enthalpies=            -621.400971
 Sum of electronic and thermal Free Energies=         -621.469915

                     E (Thermal)             CV                S
                      KCal/Mol        Cal/Mol-Kelvin    Cal/Mol-Kelvin
 Total                  207.732             64.119            145.104
 Electronic               0.000              0.000              0.000
 Translational            0.889              2.981             41.960
 Rotational               0.889              2.981             33.231
 Vibrational            205.955             58.158             69.913
 Vibration     1          0.592              1.987             10.688
 Vibration     2          0.593              1.984              5.971
 Vibration     3          0.593              1.984              5.893
 Vibration     4          0.594              1.981              5.316
 Vibration     5          0.596              1.975              4.615
 Vibration     6          0.599              1.965              4.000
 Vibration     7          0.605              1.946              3.384
 Vibration     8          0.607              1.940              3.251
 Vibration     9          0.617              1.908              2.734
 Vibration    10          0.621              1.893              2.562
 Vibration    11          0.641              1.829              2.067
 Vibration    12          0.653              1.792              1.863
 Vibration    13          0.666              1.754              1.693
 Vibration    14          0.676              1.722              1.573
 Vibration    15          0.687              1.691              1.469
 Vibration    16          0.718              1.602              1.227
 Vibration    17          0.723              1.587              1.192
 Vibration    18          0.754              1.501              1.018
 Vibration    19          0.778              1.438              0.910
 Vibration    20          0.781              1.431              0.898
 Vibration    21          0.821              1.332              0.757
 Vibration    22          0.850              1.262              0.671
 Vibration    23          0.887              1.179              0.583
 Vibration    24          0.909              1.132              0.537
 Vibration    25          0.922              1.104              0.512

 Optimization completed on the basis of negligible forces.
    -- Stationary point found.
 Normal termination of Gaussian 16 at Sat Sep 16 14:04:30 2023.
