 Gaussian 16, Revision B.01,
 Gaussian 16:  EM64L-G16RevB.01 20-Dec-2017

 ----------------------------------------------------------------------
 # opt freq b3lyp/6-31+g(d) geom=connectivity empiricaldispersion=gd3 v
 olume
 ----------------------------------------------------------------------

 --------------
 ML molecule100
 --------------
 Symbolic Z-matrix:
 Charge =  0 Multiplicity = 1

 SCF Done:  E(RB3LYP) =  -731.618150544     A.U. after   15 cycles
 SCF Done:  E(RB3LYP) =  -731.648775923     A.U. after   16 cycles
 SCF Done:  E(RB3LYP) =  -731.676968392     A.U. after   16 cycles
 SCF Done:  E(RB3LYP) =  -731.696519964     A.U. after   14 cycles
 SCF Done:  E(RB3LYP) =  -731.696995569     A.U. after   16 cycles
 SCF Done:  E(RB3LYP) =  -731.708220413     A.U. after   16 cycles
 SCF Done:  E(RB3LYP) =  -731.712611041     A.U. after   14 cycles
 SCF Done:  E(RB3LYP) =  -731.715079844     A.U. after   16 cycles
 SCF Done:  E(RB3LYP) =  -731.716791293     A.U. after   15 cycles
 SCF Done:  E(RB3LYP) =  -731.717483470     A.U. after   16 cycles
 SCF Done:  E(RB3LYP) =  -731.721409019     A.U. after   11 cycles
 SCF Done:  E(RB3LYP) =  -731.721409002     A.U. after   11 cycles
 SCF Done:  E(RB3LYP) =  -731.721408988     A.U. after   11 cycles
 SCF Done:  E(RB3LYP) =  -731.721408986     A.U. after   10 cycles
 SCF Done:  E(RB3LYP) =  -731.721409002     A.U. after    9 cycles
 SCF Done:  E(RB3LYP) =  -731.721409026     A.U. after    9 cycles
 SCF Done:  E(RB3LYP) =  -731.721409053     A.U. after    9 cycles
 SCF Done:  E(RB3LYP) =  -731.721409102     A.U. after   10 cycles
 SCF Done:  E(RB3LYP) =  -731.721409163     A.U. after   10 cycles
 Optimization completed.
    -- Stationary point found.
 Normal termination of Gaussian 16 at Fri Sep 15 09:05:57 2023.

 ---------------------------------------------------------------------
 #N Geom=AllCheck Guess=TCheck SCRF=Check GenChk RB3LYP/6-31+G(d) Freq
 ---------------------------------------------------------------------

 Structure from the checkpoint file:  "molecule_100.chk"
 --------------
 ML molecule100
 --------------
 Charge =  0 Multiplicity = 1

                         Standard orientation:
 ---------------------------------------------------------------------
 Center     Atomic      Atomic             Coordinates (Angstroms)
 Number     Number       Type             X           Y           Z
 ---------------------------------------------------------------------
      1          6           0       -3.818859    0.868100   -0.011959
      2          6           0       -2.589360    1.518260   -0.142780
      3          6           0       -1.412153    0.754169   -0.203558
      4          6           0       -1.489062   -0.635793   -0.128152
      5          6           0       -2.724624   -1.281665    0.001469
      6          6           0       -3.900796   -0.533727    0.057133
      7          1           0       -2.741920   -2.366581    0.057030
      8          8           0       -0.386640   -1.465934   -0.206179
      9          6           0        0.882447   -0.929142   -0.035713
     10          6           0        1.302137   -0.473857    1.219827
     11          6           0        1.758465   -0.918642   -1.114149
     12          6           0        2.599196   -0.002450    1.384657
     13          6           0        3.070081   -0.451560   -0.952826
     14          1           0        1.414604   -1.280130   -2.078603
     15          6           0        3.491414    0.011775    0.299398
     16          1           0        2.948162    0.354222    2.349025
     17          1           0        3.739346   -0.456020   -1.805543
     18          1           0       -0.448950    1.243768   -0.307960
     19          1           0        0.606624   -0.491537    2.053588
     20          1           0       -4.732827    1.457208    0.038286
     21          8           0        4.743740    0.492858    0.571271
     22          6           0        5.699212    0.527076   -0.480445
     23          1           0        5.366484    1.175422   -1.302822
     24          1           0        6.610157    0.937699   -0.041150
     25          1           0        5.903207   -0.480337   -0.868667
     26          6           0       -5.246195   -1.214170    0.172857
     27          1           0       -5.789774   -1.173189   -0.780504
     28          1           0       -5.142260   -2.268537    0.450177
     29          1           0       -5.876020   -0.725770    0.926163
     30          6           0       -2.503345    3.026462   -0.216314
     31          1           0       -1.931248    3.431965    0.628178
     32          1           0       -1.996995    3.350400   -1.134432
     33          1           0       -3.496748    3.487021   -0.200164
 ---------------------------------------------------------------------

 SCF Done:  E(RB3LYP) =  -731.721409163     A.U. after    1 cycles

 The electronic state is 1-A.
 Alpha  occ. eigenvalues --  -19.19142 -19.18931 -10.25845 -10.25125 -10.24947
 Alpha  occ. eigenvalues --  -10.24881 -10.20267 -10.20194 -10.20181 -10.20157
 Alpha  occ. eigenvalues --  -10.20114 -10.19893 -10.18554 -10.18522 -10.18381
 Alpha  occ. eigenvalues --  -10.18295 -10.18074  -1.07638  -1.07406  -0.86581
 Alpha  occ. eigenvalues --   -0.85346  -0.78295  -0.77508  -0.76099  -0.74589
 Alpha  occ. eigenvalues --   -0.70450  -0.68926  -0.68455  -0.62795  -0.62470
 Alpha  occ. eigenvalues --   -0.58043  -0.57634  -0.54375  -0.52575  -0.50119
 Alpha  occ. eigenvalues --   -0.49679  -0.48150  -0.47693  -0.46057  -0.43979
 Alpha  occ. eigenvalues --   -0.43599  -0.43071  -0.42432  -0.41871  -0.41449
 Alpha  occ. eigenvalues --   -0.40702  -0.40348  -0.39743  -0.39153  -0.38328
 Alpha  occ. eigenvalues --   -0.36871  -0.36370  -0.35445  -0.33976  -0.33957
 Alpha  occ. eigenvalues --   -0.32198  -0.31094  -0.26515  -0.23945  -0.23130
 Alpha  occ. eigenvalues --   -0.21646
 Alpha virt. eigenvalues --   -0.02344  -0.00825  -0.00280   0.00023   0.00414
 Alpha virt. eigenvalues --    0.00942   0.01972   0.02150   0.02350   0.03175
 Alpha virt. eigenvalues --    0.03693   0.03938   0.04467   0.04571   0.05218

 Mulliken charges:
               1
     1  C   -0.881300
     2  C   -0.145370
     3  C    1.117433
     4  C   -0.327861
     5  C   -0.515563
     6  C    0.411615
     7  H    0.183670
     8  O   -0.329142
     9  C    0.036232
    10  C   -0.102863
    11  C   -0.448426
    12  C   -0.173030
    13  C    0.441242
    14  H    0.191554
    15  C   -0.060708
    16  H    0.194286
    17  H    0.179608
    18  H    0.199152
    19  H    0.193684
    20  H    0.166539
    21  O   -0.387471
    22  C   -0.319612
    23  H    0.203029
    24  H    0.208732
    25  H    0.203803
    26  C   -0.801419
    27  H    0.225673
    28  H    0.206714
    29  H    0.214317
    30  C   -0.735766
    31  H    0.223784
    32  H    0.221874
    33  H    0.205592
 Sum of Mulliken charges =   0.00000

 Dipole moment (field-independent basis, Debye):
    X=              1.1045    Y=              1.1102    Z=             -0.9455  Tot=              1.8294
 Quadrupole moment (field-independent basis, Debye-Ang):
   XX=            -84.0690   YY=           -102.0052   ZZ=           -100.3183
   XY=              1.0304   XZ=             -7.7294   YZ=             -0.0443

  Exact polarizability: 260.849  12.869 161.559  -7.136   3.975 138.561
 Approx polarizability: 336.597  22.264 254.094  -9.768  12.718 229.858

                      1                      2                      3
                      A                      A                      A
 Frequencies --      9.0808                25.2133                29.2783
 Red. masses --      4.3754                 1.1855                 1.7292
 Frc consts  --      0.0002                 0.0004                 0.0009
 IR Inten    --      0.6604                 0.1850                 0.2482

                      4                      5                      6
                      A                      A                      A
 Frequencies --     32.0392                49.8506                86.9345
 Red. masses --      1.2738                 4.1552                 3.5318
 Frc consts  --      0.0008                 0.0061                 0.0157
 IR Inten    --      0.6935                 0.1189                 2.9500

                      7                      8                      9
                      A                      A                      A
 Frequencies --    159.9635               171.0069               209.9829
 Red. masses --      4.3227                 3.6731                 3.5253
 Frc consts  --      0.0652                 0.0633                 0.0916
 IR Inten    --      1.4054                 2.5388                 1.8010

                     10                     11                     12
                      A                      A                      A
 Frequencies --    220.0847               228.9808               257.4741
 Red. masses --      3.7965                 3.0854                 2.6140
 Frc consts  --      0.1083                 0.0953                 0.1021
 IR Inten    --      0.3999                 0.0793                 2.0752

                     13                     14                     15
                      A                      A                      A
 Frequencies --    267.5010               286.2569               357.9701
 Red. masses --      1.6560                 2.0915                 4.8006
 Frc consts  --      0.0698                 0.1010                 0.3624
 IR Inten    --      1.5243                 0.6850                 1.8217

                     16                     17                     18
                      A                      A                      A
 Frequencies --    394.3216               430.8565               436.4574
 Red. masses --      5.6319                 3.5662                 3.3496
 Frc consts  --      0.5159                 0.3900                 0.3759
 IR Inten    --      1.3775                 0.5473                 0.1808

                     19                     20                     21
                      A                      A                      A
 Frequencies --    490.7627               516.1233               521.8711
 Red. masses --      3.8257                 4.9161                 2.9688
 Frc consts  --      0.5429                 0.7716                 0.4764
 IR Inten    --      1.5860                 2.3142                11.7426

                     22                     23                     24
                      A                      A                      A
 Frequencies --    529.4612               542.8289               567.6498
 Red. masses --      3.1480                 4.5278                 4.5521
 Frc consts  --      0.5199                 0.7861                 0.8642
 IR Inten    --      2.5639                 6.7252                 4.1191

                     25                     26                     27
                      A                      A                      A
 Frequencies --    578.4937               631.6876               655.4546
 Red. masses --      4.1997                 4.3288                 6.0134
 Frc consts  --      0.8281                 1.0177                 1.5221
 IR Inten    --      1.9351                 1.6025                 2.1666

                     28                     29                     30
                      A                      A                      A
 Frequencies --    693.7512               726.9653               759.5777
 Red. masses --      2.4764                 4.2706                 4.9292
 Frc consts  --      0.7022                 1.3297                 1.6756
 IR Inten    --      9.1319                 5.0937                23.1636

                     31                     32                     33
                      A                      A                      A
 Frequencies --    815.0166               846.8018               852.0166
 Red. masses --      1.2644                 2.5200                 1.4583
 Frc consts  --      0.4949                 1.0647                 0.6237
 IR Inten    --      3.0003                30.1222                40.6200

                     34                     35                     36
                      A                      A                      A
 Frequencies --    861.2195               870.1658               886.8657
 Red. masses --      2.6167                 1.2987                 1.4515
 Frc consts  --      1.1435                 0.5794                 0.6726
 IR Inten    --     22.3780                 0.6833                 3.6031

                     37                     38                     39
                      A                      A                      A
 Frequencies --    940.0666               962.7212               973.5854
 Red. masses --      1.3727                 1.3621                 2.8593
 Frc consts  --      0.7148                 0.7438                 1.5968
 IR Inten    --      0.4591                 2.0667                14.8082

                     40                     41                     42
                      A                      A                      A
 Frequencies --    981.2410              1010.9844              1028.2837
 Red. masses --      2.8152                 5.5263                 2.6205
 Frc consts  --      1.5970                 3.3279                 1.6325
 IR Inten    --     27.3003                 0.3908                 2.8155

                     43                     44                     45
                      A                      A                      A
 Frequencies --   1045.7607              1056.9460              1069.1341
 Red. masses --      1.4992                 1.9699                 2.7127
 Frc consts  --      0.9660                 1.2966                 1.8269
 IR Inten    --      0.7164                32.0913                50.1223

                     46                     47                     48
                      A                      A                      A
 Frequencies --   1069.5679              1071.4860              1136.8209
 Red. masses --      2.1317                 1.5089                 1.2934
 Frc consts  --      1.4368                 1.0207                 0.9848
 IR Inten    --     37.4198                 0.1062                12.0198

                     49                     50                     51
                      A                      A                      A
 Frequencies --   1172.7748              1181.3440              1195.9286
 Red. masses --      1.5571                 1.2703                 1.1906
 Frc consts  --      1.2618                 1.0445                 1.0033
 IR Inten    --     52.0772                 1.1305                 6.4903

                     52                     53                     54
                      A                      A                      A
 Frequencies --   1198.5785              1215.4123              1249.3515
 Red. masses --      1.4243                 1.3885                 3.4048
 Frc consts  --      1.2056                 1.2085                 3.1312
 IR Inten    --      0.3957                21.3752               479.9762

                     55                     56                     57
                      A                      A                      A
 Frequencies --   1286.8851              1310.6709              1326.1138
 Red. masses --      5.9744                 2.3232                 2.3774
 Frc consts  --      5.8294                 2.3514                 2.4633
 IR Inten    --    146.5211                22.6708                68.5523

                     58                     59                     60
                      A                      A                      A
 Frequencies --   1331.4509              1351.7734              1370.5670
 Red. masses --      1.3563                 7.2366                 4.6979
 Frc consts  --      1.4166                 7.7910                 5.1994
 IR Inten    --     13.9591                36.1503                35.5672

                     61                     62                     63
                      A                      A                      A
 Frequencies --   1436.5140              1438.4609              1456.8859
 Red. masses --      1.2274                 1.2572                 3.1335
 Frc consts  --      1.4923                 1.5327                 3.9186
 IR Inten    --      0.7039                 0.7212                 1.4589

                     64                     65                     66
                      A                      A                      A
 Frequencies --   1470.4325              1492.8697              1493.8960
 Red. masses --      2.1726                 1.4267                 1.5236
 Frc consts  --      2.7677                 1.8734                 2.0034
 IR Inten    --     29.6857                30.1849                 3.0536

                     67                     68                     69
                      A                      A                      A
 Frequencies --   1508.3480              1510.6815              1518.1924
 Red. masses --      1.0445                 1.0605                 1.0459
 Frc consts  --      1.4002                 1.4260                 1.4204
 IR Inten    --      9.6696                 5.7345                 8.2069

                     70                     71                     72
                      A                      A                      A
 Frequencies --   1525.6300              1526.6879              1527.8721
 Red. masses --      1.2931                 1.1863                 1.2054
 Frc consts  --      1.7733                 1.6291                 1.6580
 IR Inten    --     92.2600                58.3830                25.8937

                     73                     74                     75
                      A                      A                      A
 Frequencies --   1549.3695              1632.4862              1641.2791
 Red. masses --      2.3472                 6.7384                 5.4845
 Frc consts  --      3.3198                10.5804                 8.7046
 IR Inten    --    267.8162                14.6261               133.6731

                     76                     77                     78
                      A                      A                      A
 Frequencies --   1656.7471              1666.2754              3017.4277
 Red. masses --      5.9407                 6.0192                 1.0346
 Frc consts  --      9.6073                 9.8465                 5.5502
 IR Inten    --     25.7920                43.9721                65.0261

                     79                     80                     81
                      A                      A                      A
 Frequencies --   3035.1370              3035.8208              3076.7489
 Red. masses --      1.0382                 1.0373                 1.1067
 Frc consts  --      5.6348                 5.6328                 6.1725
 IR Inten    --     52.3859                23.9018                41.7714

                     82                     83                     84
                      A                      A                      A
 Frequencies --   3086.2915              3088.0287              3114.8333
 Red. masses --      1.1007                 1.0987                 1.1010
 Frc consts  --      6.1770                 6.1728                 6.2937
 IR Inten    --     16.1416                19.6601                18.5353

                     85                     86                     87
                      A                      A                      A
 Frequencies --   3115.3508              3154.2214              3167.4420
 Red. masses --      1.1016                 1.0994                 1.0899
 Frc consts  --      6.2994                 6.4443                 6.4426
 IR Inten    --     22.4781                25.2784                23.9324

                     88                     89                     90
                      A                      A                      A
 Frequencies --   3197.4410              3200.7998              3204.2945
 Red. masses --      1.0909                 1.0881                 1.0902
 Frc consts  --      6.5711                 6.5681                 6.5949
 IR Inten    --      6.8285                11.9059                 4.0732

                     91                     92                     93
                      A                      A                      A
 Frequencies --   3205.2663              3215.9692              3225.7700
 Red. masses --      1.0894                 1.0951                 1.0927
 Frc consts  --      6.5944                 6.6730                 6.6990
 IR Inten    --      5.4282                 4.5009                 7.7905

 - Thermochemistry -
 -------------------
 Temperature   298.150 Kelvin.  Pressure   1.00000 Atm.
 Atom     1 has atomic number  6 and mass  12.00000

 Molecular mass:   228.11503 amu.
 Principal axes and moments of inertia in atomic units:
                           1         2         3
     Eigenvalues --  1515.672149010.533949800.37748
           X            0.99998   0.00137  -0.00665
           Y           -0.00142   0.99998  -0.00673
           Z            0.00664   0.00674   0.99996
 This molecule is an asymmetric top.
 Rotational symmetry number  1.
 Warning -- assumption of classical behavior for rotation
           may cause significant error
 Rotational temperatures (Kelvin)      0.05715     0.00961     0.00884
 Rotational constants (GHZ):           1.19072     0.20029     0.18415
 Zero-point vibrational energy     716149.7 (Joules/Mol)
                                  171.16389 (Kcal/Mol)
 Warning -- explicit consideration of  25 degrees of freedom as
           vibrations may cause significant error
 Vibrational temperatures:     13.07    36.28    42.12    46.10    71.72
          (Kelvin)            125.08   230.15   246.04   302.12   316.65
                              329.45   370.45   384.87   411.86   515.04
                              567.34   619.91   627.96   706.10   742.59
                              750.86   761.78   781.01   816.72   832.32
                              908.86   943.05   998.15  1045.94  1092.86
                             1172.63  1218.36  1225.86  1239.10  1251.97
                             1276.00  1352.55  1385.14  1400.77  1411.79
                             1454.58  1479.47  1504.62  1520.71  1538.25
                             1538.87  1541.63  1635.63  1687.36  1699.69
                             1720.67  1724.49  1748.71  1797.54  1851.54
                             1885.76  1907.98  1915.66  1944.90  1971.94
                             2066.82  2069.62  2096.13  2115.62  2147.91
                             2149.38  2170.18  2173.53  2184.34  2195.04
                             2196.56  2198.27  2229.20  2348.78  2361.43
                             2383.69  2397.40  4341.41  4366.89  4367.87
                             4426.76  4440.49  4442.98  4481.55  4482.29
                             4538.22  4557.24  4600.40  4605.24  4610.27
                             4611.66  4627.06  4641.16

 Zero-point correction=                           0.272767 (Hartree/Particle)
 Thermal correction to Energy=                    0.289192
 Thermal correction to Enthalpy=                  0.290136
 Thermal correction to Gibbs Free Energy=         0.224736
 Sum of electronic and zero-point Energies=           -731.448642
 Sum of electronic and thermal Energies=              -731.432218
 Sum of electronic and thermal Enthalpies=            -731.431273
 Sum of electronic and thermal Free Energies=         -731.496673

                     E (Thermal)             CV                S
                      KCal/Mol        Cal/Mol-Kelvin    Cal/Mol-Kelvin
 Total                  181.471             61.277            137.645
 Electronic               0.000              0.000              0.000
 Translational            0.889              2.981             42.176
 Rotational               0.889              2.981             33.259
 Vibrational            179.693             55.315             62.210
 Vibration     1          0.593              1.987              8.203
 Vibration     2          0.593              1.985              6.174
 Vibration     3          0.593              1.984              5.878
 Vibration     4          0.594              1.983              5.699
 Vibration     5          0.595              1.978              4.823
 Vibration     6          0.601              1.958              3.728
 Vibration     7          0.622              1.891              2.550
 Vibration     8          0.626              1.878              2.424
 Vibration     9          0.642              1.826              2.044
 Vibration    10          0.647              1.810              1.958
 Vibration    11          0.652              1.797              1.887
 Vibration    12          0.667              1.750              1.679
 Vibration    13          0.673              1.733              1.612
 Vibration    14          0.684              1.699              1.496
 Vibration    15          0.733              1.559              1.131
 Vibration    16          0.761              1.482              0.984
 Vibration    17          0.792              1.403              0.856
 Vibration    18          0.797              1.391              0.838
 Vibration    19          0.847              1.271              0.682
 Vibration    20          0.871              1.214              0.619
 Vibration    21          0.877              1.202              0.606
 Vibration    22          0.884              1.185              0.588
 Vibration    23          0.898              1.155              0.559
 Vibration    24          0.924              1.101              0.509
 Vibration    25          0.935              1.078              0.488

                           ! Non-Optimized Parameters !
 Normal termination of Gaussian 16 at Fri Sep 15 09:12:52 2023.
