 Gaussian 16, Revision B.01,
 Gaussian 16:  EM64L-G16RevB.01 20-Dec-2017

 ----------------------------------------------------------------------
 # opt freq b3lyp/6-31+g(d) geom=connectivity empiricaldispersion=gd3 v
 olume
 ----------------------------------------------------------------------

 --------------
 ML molecule102
 --------------
 Symbolic Z-matrix:
 Charge =  0 Multiplicity = 1

 SCF Done:  E(RB3LYP) =  -646.725896874     A.U. after   16 cycles
 SCF Done:  E(RB3LYP) =  -646.761115665     A.U. after   16 cycles
 SCF Done:  E(RB3LYP) =  -646.761512712     A.U. after   16 cycles
 SCF Done:  E(RB3LYP) =  -646.802958005     A.U. after   17 cycles
 SCF Done:  E(RB3LYP) =  -646.820083996     A.U. after   16 cycles
 SCF Done:  E(RB3LYP) =  -646.827032312     A.U. after   16 cycles
 SCF Done:  E(RB3LYP) =  -646.824264330     A.U. after   16 cycles
 SCF Done:  E(RB3LYP) =  -646.830315459     A.U. after   16 cycles
 SCF Done:  E(RB3LYP) =  -646.831825636     A.U. after   16 cycles
 SCF Done:  E(RB3LYP) =  -646.831919814     A.U. after   13 cycles
 SCF Done:  E(RB3LYP) =  -646.831948540     A.U. after   11 cycles
 SCF Done:  E(RB3LYP) =  -646.831955845     A.U. after   13 cycles
 SCF Done:  E(RB3LYP) =  -646.831959709     A.U. after   12 cycles
 SCF Done:  E(RB3LYP) =  -646.831961603     A.U. after   12 cycles
 SCF Done:  E(RB3LYP) =  -646.831963067     A.U. after   12 cycles
 SCF Done:  E(RB3LYP) =  -646.831963399     A.U. after   11 cycles
 SCF Done:  E(RB3LYP) =  -646.831963441     A.U. after    9 cycles
 Optimization completed.
    -- Stationary point found.
 Normal termination of Gaussian 16 at Mon Sep 18 16:04:51 2023.

 ---------------------------------------------------------------------
 #N Geom=AllCheck Guess=TCheck SCRF=Check GenChk RB3LYP/6-31+G(d) Freq
 ---------------------------------------------------------------------

 Structure from the checkpoint file:  "molecule_125.chk"
 --------------
 ML molecule102
 --------------
 Charge =  0 Multiplicity = 1

                         Standard orientation:
 ---------------------------------------------------------------------
 Center     Atomic      Atomic             Coordinates (Angstroms)
 Number     Number       Type             X           Y           Z
 ---------------------------------------------------------------------
      1          6           0       -3.066997   -0.197610    0.065649
      2          6           0       -1.995752   -1.027304    0.437020
      3          6           0       -0.686029   -0.555310    0.390689
      4          6           0       -0.444410    0.756573   -0.034892
      5          6           0       -1.503692    1.595278   -0.404499
      6          6           0       -2.808189    1.121454   -0.354208
      7          1           0       -2.191335   -2.043014    0.766674
      8          1           0       -1.283764    2.607847   -0.727147
      9          1           0       -3.632717    1.766083   -0.642293
     10          8           0        0.807796    1.322497   -0.080940
     11          6           0        1.936122    0.518810   -0.043876
     12          6           0        2.225636   -0.366035   -1.087959
     13          6           0        2.835204    0.660088    1.008506
     14          6           0        4.000489   -0.108136    0.974987
     15          1           0        2.619180    1.352986    1.816218
     16          6           0        4.202967   -0.975932   -0.101779
     17          1           0        4.737655   -0.036568    1.769518
     18          1           0        0.135222   -1.199612    0.683935
     19          1           0        1.530684   -0.472843   -1.918332
     20          1           0        5.099500   -1.589192   -0.157257
     21          7           0        3.337076   -1.107245   -1.117840
     22          6           0       -4.411950   -0.689116    0.115292
     23          7           0       -5.505246   -1.087357    0.155929
 ---------------------------------------------------------------------

 SCF Done:  E(RB3LYP) =  -646.831963441     A.U. after    1 cycles

 The electronic state is 1-A.
 Alpha  occ. eigenvalues --  -19.22924 -14.36239 -14.34736 -10.29405 -10.28544
 Alpha  occ. eigenvalues --  -10.25109 -10.25024 -10.24753 -10.23975 -10.23705
 Alpha  occ. eigenvalues --  -10.23679 -10.23604 -10.22989 -10.22808 -10.22552
 Alpha  occ. eigenvalues --   -1.11775  -0.96886  -0.91826  -0.89241  -0.83718
 Alpha  occ. eigenvalues --   -0.80416  -0.78943  -0.77603  -0.69031  -0.66658
 Alpha  occ. eigenvalues --   -0.65454  -0.63457  -0.58379  -0.57619  -0.54106
 Alpha  occ. eigenvalues --   -0.52490  -0.51825  -0.48159  -0.47406  -0.46261
 Alpha  occ. eigenvalues --   -0.44730  -0.44263  -0.43461  -0.43119  -0.41333
 Alpha  occ. eigenvalues --   -0.40907  -0.39489  -0.38011  -0.36926  -0.34418
 Alpha  occ. eigenvalues --   -0.34112  -0.31283  -0.29265  -0.28700  -0.28243
 Alpha  occ. eigenvalues --   -0.25446
 Alpha virt. eigenvalues --   -0.06339  -0.05707  -0.04430  -0.03815  -0.00985
 Alpha virt. eigenvalues --    0.00133   0.01192   0.01929   0.01965   0.02057
 Alpha virt. eigenvalues --    0.02774   0.03548   0.03770   0.04556   0.04969

 Mulliken charges:
               1
     1  C    0.595286
     2  C   -0.692883
     3  C    0.879174
     4  C   -0.265538
     5  C   -0.228292
     6  C   -0.318181
     7  H    0.210453
     8  H    0.205134
     9  H    0.210436
    10  O   -0.338006
    11  C    0.144885
    12  C   -0.335019
    13  C    0.131262
    14  C   -0.042866
    15  H    0.204885
    16  C   -0.273671
    17  H    0.196958
    18  H    0.209649
    19  H    0.200704
    20  H    0.189508
    21  N   -0.119540
    22  C   -0.231423
    23  N   -0.532915
 Sum of Mulliken charges =   0.00000

 Dipole moment (field-independent basis, Debye):
    X=              4.8144    Y=              1.9849    Z=              1.6625  Tot=              5.4665
 Quadrupole moment (field-independent basis, Debye-Ang):
   XX=           -112.5387   YY=            -85.7429   ZZ=            -86.7848
   XY=             -8.3199   XZ=             10.6901   YZ=             -3.1094

  Exact polarizability: 238.334  -0.603 128.092  10.256   0.095 106.063
 Approx polarizability: 331.039   2.076 221.227  19.488   1.062 174.551

                      1                      2                      3
                      A                      A                      A
 Frequencies --     12.1103                42.6680                68.1082
 Red. masses --      5.1786                 4.3668                 6.5016
 Frc consts  --      0.0004                 0.0047                 0.0178
 IR Inten    --      0.3448                 0.4729                 1.5626

                      4                      5                      6
                      A                      A                      A
 Frequencies --    102.0084               147.8517               237.3938
 Red. masses --      8.6086                 8.1654                 4.5501
 Frc consts  --      0.0528                 0.1052                 0.1511
 IR Inten    --      3.8411                 5.6027                 0.1586

                      7                      8                      9
                      A                      A                      A
 Frequencies --    252.6887               299.9796               384.1907
 Red. masses --      6.7107                 6.0176                 6.6739
 Frc consts  --      0.2525                 0.3190                 0.5804
 IR Inten    --      1.1568                 1.1862                 5.0756

                     10                     11                     12
                      A                      A                      A
 Frequencies --    418.3363               421.2877               446.3674
 Red. masses --      3.0964                 3.1586                 6.1199
 Frc consts  --      0.3193                 0.3303                 0.7184
 IR Inten    --      1.9051                 2.2936                 1.8864

                     13                     14                     15
                      A                      A                      A
 Frequencies --    477.5358               515.8684               556.2690
 Red. masses --      5.1754                 5.8805                 7.3774
 Frc consts  --      0.6953                 0.9220                 1.3450
 IR Inten    --      2.2190                 2.2175                 0.6434

                     16                     17                     18
                      A                      A                      A
 Frequencies --    559.0480               617.5562               636.3107
 Red. masses --      3.4298                 6.5389                 7.1867
 Frc consts  --      0.6316                 1.4693                 1.7144
 IR Inten    --     20.6770                 2.2008                 2.1189

                     19                     20                     21
                      A                      A                      A
 Frequencies --    669.2633               708.5827               716.3596
 Red. masses --      7.0786                 5.7716                 2.9112
 Frc consts  --      1.8681                 1.7074                 0.8802
 IR Inten    --      0.3659                 5.6691                23.8747

                     22                     23                     24
                      A                      A                      A
 Frequencies --    724.6094               810.2354               833.6260
 Red. masses --      2.9241                 3.2179                 1.2529
 Frc consts  --      0.9046                 1.2447                 0.5130
 IR Inten    --      6.2443                 8.2390                 0.9407

                     25                     26                     27
                      A                      A                      A
 Frequencies --    836.7974               853.6366               891.0232
 Red. masses --      2.0676                 1.7648                 7.0730
 Frc consts  --      0.8530                 0.7577                 3.3085
 IR Inten    --     35.0450                44.8216                26.8095

                     28                     29                     30
                      A                      A                      A
 Frequencies --    935.9795               965.0199               967.2314
 Red. masses --      1.3326                 1.4229                 1.3190
 Frc consts  --      0.6878                 0.7807                 0.7271
 IR Inten    --      0.8786                 2.0140                 0.7886

                     31                     32                     33
                      A                      A                      A
 Frequencies --    977.6528               997.1621              1032.0764
 Red. masses --      1.3378                 1.3752                 2.7379
 Frc consts  --      0.7534                 0.8056                 1.7182
 IR Inten    --      0.1433                 0.1193                 2.0817

                     34                     35                     36
                      A                      A                      A
 Frequencies --   1036.7230              1064.0848              1136.0735
 Red. masses --      4.0493                 2.5118                 1.3885
 Frc consts  --      2.5642                 1.6757                 1.0559
 IR Inten    --     16.6325                 0.8609                10.3078

                     37                     38                     39
                      A                      A                      A
 Frequencies --   1150.2536              1204.4751              1227.3264
 Red. masses --      1.3216                 1.4874                 1.9661
 Frc consts  --      1.0303                 1.2714                 1.7449
 IR Inten    --      7.5076                50.4418                10.0717

                     40                     41                     42
                      A                      A                      A
 Frequencies --   1228.2006              1233.1709              1286.1250
 Red. masses --      2.2419                 2.2112                 4.7684
 Frc consts  --      1.9925                 1.9812                 4.6471
 IR Inten    --      8.1900                15.4290               567.5993

                     43                     44                     45
                      A                      A                      A
 Frequencies --   1300.1028              1338.7118              1343.1341
 Red. masses --      6.0703                 2.3172                 2.2399
 Frc consts  --      6.0453                 2.4467                 2.3808
 IR Inten    --     17.5297                20.9007                 8.6400

                     46                     47                     48
                      A                      A                      A
 Frequencies --   1361.3837              1457.1025              1466.3104
 Red. masses --      1.3432                 2.8665                 2.4528
 Frc consts  --      1.4668                 3.5858                 3.1071
 IR Inten    --      0.5615                 4.5074                64.9653

                     49                     50                     51
                      A                      A                      A
 Frequencies --   1515.1514              1544.9770              1613.9822
 Red. masses --      2.2221                 2.4175                 6.5614
 Frc consts  --      3.0055                 3.3999                10.0703
 IR Inten    --    100.2334               160.4590                 6.1615

                     52                     53                     54
                      A                      A                      A
 Frequencies --   1625.6151              1632.9328              1658.8018
 Red. masses --      5.6011                 5.9901                 5.6584
 Frc consts  --      8.7208                 9.4108                 9.1735
 IR Inten    --      9.0805                65.1373               104.4770

                     55                     56                     57
                      A                      A                      A
 Frequencies --   2332.6132              3183.9451              3186.4838
 Red. masses --     12.6785                 1.0886                 1.0914
 Frc consts  --     40.6448                 6.5022                 6.5289
 IR Inten    --     76.7201                25.6928                 1.4700

                     58                     59                     60
                      A                      A                      A
 Frequencies --   3204.7697              3208.8892              3210.2296
 Red. masses --      1.0917                 1.0891                 1.0896
 Frc consts  --      6.6064                 6.6075                 6.6157
 IR Inten    --     16.7776                 4.5037                 1.1844

                     61                     62                     63
                      A                      A                      A
 Frequencies --   3219.0118              3224.0124              3228.0375
 Red. masses --      1.0968                 1.0955                 1.0940
 Frc consts  --      6.6960                 6.7087                 6.7163
 IR Inten    --      5.5286                 2.3677                 1.9552

 - Thermochemistry -
 -------------------
 Temperature   298.150 Kelvin.  Pressure   1.00000 Atm.
 Atom     1 has atomic number  6 and mass  12.00000

 Molecular mass:   196.06366 amu.
 Principal axes and moments of inertia in atomic units:
                           1         2         3
     Eigenvalues --   908.594846689.954827056.95287
           X            0.99996  -0.00655   0.00654
           Y            0.00667   0.99980  -0.01872
           Z           -0.00642   0.01876   0.99980
 This molecule is an asymmetric top.
 Rotational symmetry number  1.
 Warning -- assumption of classical behavior for rotation
           may cause significant error
 Rotational temperatures (Kelvin)      0.09533     0.01295     0.01227
 Rotational constants (GHZ):           1.98630     0.26977     0.25574
 Zero-point vibrational energy     451814.4 (Joules/Mol)
                                  107.98623 (Kcal/Mol)
 Warning -- explicit consideration of  17 degrees of freedom as
           vibrations may cause significant error
 Vibrational temperatures:     17.42    61.39    97.99   146.77   212.73
          (Kelvin)            341.56   363.56   431.60   552.76   601.89
                              606.14   642.22   687.07   742.22   800.35
                              804.35   888.53   915.51   962.92  1019.49
                             1030.68  1042.55  1165.75  1199.40  1203.96
                             1228.19  1281.98  1346.67  1388.45  1391.63
                             1406.62  1434.69  1484.93  1491.61  1530.98
                             1634.56  1654.96  1732.97  1765.85  1767.11
                             1774.26  1850.45  1870.56  1926.11  1932.47
                             1958.73  2096.45  2109.69  2179.96  2222.88
                             2322.16  2338.90  2349.43  2386.65  3356.11
                             4580.99  4584.64  4610.95  4616.88  4618.80
                             4631.44  4638.63  4644.43

 Zero-point correction=                           0.172087 (Hartree/Particle)
 Thermal correction to Energy=                    0.183822
 Thermal correction to Enthalpy=                  0.184767
 Thermal correction to Gibbs Free Energy=         0.131548
 Sum of electronic and zero-point Energies=           -646.659876
 Sum of electronic and thermal Energies=              -646.648141
 Sum of electronic and thermal Enthalpies=            -646.647197
 Sum of electronic and thermal Free Energies=         -646.700416

                     E (Thermal)             CV                S
                      KCal/Mol        Cal/Mol-Kelvin    Cal/Mol-Kelvin
 Total                  115.350             45.081            112.009
 Electronic               0.000              0.000              0.000
 Translational            0.889              2.981             41.725
 Rotational               0.889              2.981             32.128
 Vibrational            113.573             39.119             38.155
 Vibration     1          0.593              1.987              7.631
 Vibration     2          0.595              1.980              5.131
 Vibration     3          0.598              1.969              4.207
 Vibration     4          0.604              1.948              3.416
 Vibration     5          0.617              1.905              2.700
 Vibration     6          0.656              1.783              1.822
 Vibration     7          0.664              1.758              1.712
 Vibration     8          0.693              1.674              1.417
 Vibration     9          0.753              1.504              1.023
 Vibration    10          0.781              1.430              0.898
 Vibration    11          0.784              1.424              0.888
 Vibration    12          0.806              1.369              0.807
 Vibration    13          0.834              1.300              0.717
 Vibration    14          0.871              1.215              0.620
 Vibration    15          0.912              1.126              0.531
 Vibration    16          0.915              1.120              0.526
 Vibration    17          0.977              0.995              0.420

 Optimization completed.
    -- Stationary point found.
 Normal termination of Gaussian 16 at Mon Sep 18 16:08:33 2023.
