 Gaussian 16, Revision B.01,
 Gaussian 16:  EM64L-G16RevB.01 20-Dec-2017

 ---------------------------------------------------------
 # opt freq b3lyp/6-31+g(d) empiricaldispersion=gd3 volume
 ---------------------------------------------------------

 -------------
 ML molecule75
 -------------
 Symbolic Z-matrix:
 Charge =  0 Multiplicity = 1

 SCF Done:  E(RB3LYP) =  -1202.52678266     A.U. after   16 cycles
 SCF Done:  E(RB3LYP) =  -1197.19064435     A.U. after   22 cycles
 SCF Done:  E(RB3LYP) =  -1202.44421481     A.U. after   17 cycles
 SCF Done:  E(RB3LYP) =  -1202.56750307     A.U. after   14 cycles
 SCF Done:  E(RB3LYP) =  -1202.58201184     A.U. after   14 cycles
 SCF Done:  E(RB3LYP) =  -1202.60156371     A.U. after   16 cycles
 SCF Done:  E(RB3LYP) =  -1202.61695686     A.U. after   18 cycles
 SCF Done:  E(RB3LYP) =  -1202.62215079     A.U. after   17 cycles
 SCF Done:  E(RB3LYP) =  -1202.63032930     A.U. after   16 cycles
 SCF Done:  E(RB3LYP) =  -1202.63345245     A.U. after   18 cycles
 SCF Done:  E(RB3LYP) =  -1202.66143322     A.U. after   15 cycles
 SCF Done:  E(RB3LYP) =  -1202.66166313     A.U. after   14 cycles
 SCF Done:  E(RB3LYP) =  -1202.66186360     A.U. after   15 cycles
 SCF Done:  E(RB3LYP) =  -1202.66185150     A.U. after   14 cycles
 SCF Done:  E(RB3LYP) =  -1202.66195971     A.U. after   12 cycles
 SCF Done:  E(RB3LYP) =  -1202.66196637     A.U. after   13 cycles
 SCF Done:  E(RB3LYP) =  -1202.66196919     A.U. after   12 cycles
 SCF Done:  E(RB3LYP) =  -1202.66196977     A.U. after   11 cycles
 SCF Done:  E(RB3LYP) =  -1202.66197003     A.U. after   11 cycles
 Optimization completed.
    -- Stationary point found.
 Normal termination of Gaussian 16 at Sat Sep 16 16:32:19 2023.

 ---------------------------------------------------------------------
 #N Geom=AllCheck Guess=TCheck SCRF=Check GenChk RB3LYP/6-31+G(d) Freq
 ---------------------------------------------------------------------

 Structure from the checkpoint file:  "molecule_75.chk"
 -------------
 ML molecule75
 -------------
 Charge =  0 Multiplicity = 1

                         Standard orientation:
 ---------------------------------------------------------------------
 Center     Atomic      Atomic             Coordinates (Angstroms)
 Number     Number       Type             X           Y           Z
 ---------------------------------------------------------------------
      1          6           0       -3.403451   -0.222322    0.022926
      2          6           0       -2.258604   -1.004928    0.176707
      3          6           0       -1.005381   -0.397950    0.158558
      4          6           0       -0.916241    0.990634   -0.014460
      5          6           0       -2.073527    1.770061   -0.165721
      6          6           0       -3.321732    1.164193   -0.147053
      7          1           0       -2.354545   -2.075922    0.310769
      8          1           0       -1.970184    2.842320   -0.296229
      9          1           0       -4.228374    1.745838   -0.263621
     10          8           0        0.266996    1.679500   -0.031612
     11          6           0        1.471427    0.981710   -0.024812
     12          6           0        1.960046    0.428093   -1.208127
     13          6           0        2.199971    0.910767    1.160430
     14          6           0        3.198017   -0.216244   -1.204719
     15          6           0        3.441110    0.269986    1.167215
     16          6           0        3.927560   -0.290857   -0.015327
     17          1           0        3.595753   -0.651852   -2.115367
     18          1           0        4.024292    0.206640    2.079938
     19          1           0       -0.109628   -0.995962    0.280464
     20          1           0        1.374729    0.504699   -2.119314
     21          7           0       -4.719923   -0.866490    0.040731
     22          8           0       -5.714972   -0.149036   -0.093851
     23          8           0       -4.762443   -2.090955    0.189201
     24          1           0        1.796587    1.357539    2.063779
     25         17           0        5.487000   -1.098988   -0.009950
 ---------------------------------------------------------------------

 SCF Done:  E(RB3LYP) =  -1202.66197003     A.U. after    1 cycles

 The electronic state is 1-A.
 Alpha  occ. eigenvalues -- -101.57172 -19.23059 -19.19452 -19.19442 -14.58276
 Alpha  occ. eigenvalues --  -10.29864 -10.28627 -10.28074 -10.26364 -10.23801
 Alpha  occ. eigenvalues --  -10.23671 -10.23583 -10.23553 -10.23364 -10.23288
 Alpha  occ. eigenvalues --  -10.23038 -10.22812  -9.48683  -7.25097  -7.24113
 Alpha  occ. eigenvalues --   -7.24084  -1.23387  -1.11945  -1.06106  -0.91834
 Alpha  occ. eigenvalues --   -0.90480  -0.86483  -0.82137  -0.79310  -0.79206
 Alpha  occ. eigenvalues --   -0.76483  -0.71076  -0.66275  -0.65906  -0.63745
 Alpha  occ. eigenvalues --   -0.60755  -0.58638  -0.56565  -0.54051  -0.53222
 Alpha  occ. eigenvalues --   -0.52159  -0.51818  -0.50535  -0.48570  -0.48481
 Alpha  occ. eigenvalues --   -0.46637  -0.46562  -0.44949  -0.43999  -0.43681
 Alpha  occ. eigenvalues --   -0.41657  -0.41051  -0.40056  -0.38311  -0.36753
 Alpha  occ. eigenvalues --   -0.34954  -0.33393  -0.32165  -0.32083  -0.30215
 Alpha  occ. eigenvalues --   -0.29740  -0.29222  -0.27306  -0.26411
 Alpha virt. eigenvalues --   -0.10227  -0.05538  -0.04554  -0.04073  -0.01508
 Alpha virt. eigenvalues --   -0.01121  -0.00139   0.00453   0.01055   0.01563
 Alpha virt. eigenvalues --    0.02264   0.02765   0.03875   0.03957   0.04760

 Mulliken charges:
               1
     1  C   -0.094721
     2  C   -0.567332
     3  C    0.690291
     4  C    0.150304
     5  C   -0.842426
     6  C    0.095889
     7  H    0.233576
     8  H    0.207381
     9  H    0.232754
    10  O   -0.320080
    11  C   -0.104723
    12  C    0.011704
    13  C    0.073108
    14  C   -0.309953
    15  C   -0.362137
    16  C    0.061529
    17  H    0.210147
    18  H    0.210263
    19  H    0.216108
    20  H    0.202044
    21  N   -0.336391
    22  O   -0.031959
    23  O   -0.034761
    24  H    0.203253
    25  Cl   0.206130
 Sum of Mulliken charges =   0.00000

 Dipole moment (field-independent basis, Debye):
    X=              4.3691    Y=              1.9909    Z=             -0.0536  Tot=              4.8016
 Quadrupole moment (field-independent basis, Debye-Ang):
   XX=           -142.8027   YY=           -106.9209   ZZ=            -98.3328
   XY=            -10.3215   XZ=              1.5421   YZ=              1.3835

  Exact polarizability: 268.080 -11.401 149.143   5.156   0.805 119.953
 Approx polarizability: 357.251 -28.940 271.580  11.994  -0.301 200.623

                      1                      2                      3
                      A                      A                      A
 Frequencies --      5.8151                34.8094                41.6766
 Red. masses --      5.1628                 7.6316                 8.8658
 Frc consts  --      0.0001                 0.0054                 0.0091
 IR Inten    --      0.4157                 0.2430                 0.3772

                      4                      5                      6
                      A                      A                      A
 Frequencies --     68.4079               100.0542               134.0018
 Red. masses --      5.5756                 8.7207                 8.6232
 Frc consts  --      0.0154                 0.0514                 0.0912
 IR Inten    --      0.0247                 2.5002                 0.2972

                      7                      8                      9
                      A                      A                      A
 Frequencies --    202.3037               256.6471               283.3037
 Red. masses --     10.3582                 8.9334                 8.3838
 Frc consts  --      0.2498                 0.3467                 0.3965
 IR Inten    --      1.6116                 2.6963                 0.8829

                     10                     11                     12
                      A                      A                      A
 Frequencies --    301.4943               332.8196               390.4621
 Red. masses --      7.0761                 6.2845                11.3625
 Frc consts  --      0.3790                 0.4101                 1.0207
 IR Inten    --      0.3071                 0.4618                 2.0110

                     13                     14                     15
                      A                      A                      A
 Frequencies --    425.3093               425.8189               429.3949
 Red. masses --      4.0429                 3.2741                 3.5244
 Frc consts  --      0.4309                 0.3498                 0.3829
 IR Inten    --      1.2757                 0.5184                 1.2662

                     16                     17                     18
                      A                      A                      A
 Frequencies --    459.1489               500.6580               530.4982
 Red. masses --      5.7294                 2.9607                 3.6536
 Frc consts  --      0.7116                 0.4372                 0.6058
 IR Inten    --      9.2238                 7.4822                21.7513

                     19                     20                     21
                      A                      A                      A
 Frequencies --    534.9509               625.6912               642.3062
 Red. masses --      7.2102                 5.8406                 7.1696
 Frc consts  --      1.2157                 1.3472                 1.7427
 IR Inten    --      3.7046                 2.4828                 1.7035

                     22                     23                     24
                      A                      A                      A
 Frequencies --    653.2343               680.5393               687.7730
 Red. masses --      6.6736                 7.0319                 3.9378
 Frc consts  --      1.6778                 1.9188                 1.0975
 IR Inten    --      9.3218                19.9831                 4.9331

                     25                     26                     27
                      A                      A                      A
 Frequencies --    722.8584               751.3703               792.7379
 Red. masses --      3.9362                 6.6536                 4.9295
 Frc consts  --      1.2118                 2.2132                 1.8252
 IR Inten    --      3.7283                23.9270                 7.2020

                     28                     29                     30
                      A                      A                      A
 Frequencies --    827.5462               831.5462               855.6889
 Red. masses --      1.2491                 1.2440                 3.8775
 Frc consts  --      0.5040                 0.5068                 1.6728
 IR Inten    --      0.1692                 0.2097                 8.9705

                     31                     32                     33
                      A                      A                      A
 Frequencies --    860.6433               865.9302               893.0488
 Red. masses --      1.9452                 2.2528                 6.4310
 Frc consts  --      0.8489                 0.9952                 3.0219
 IR Inten    --     51.4017                46.8891                50.7172

                     34                     35                     36
                      A                      A                      A
 Frequencies --    958.9282               971.3096               980.1909
 Red. masses --      1.3254                 1.3438                 1.2969
 Frc consts  --      0.7181                 0.7470                 0.7341
 IR Inten    --      0.6737                 0.0128                 1.9411

                     37                     38                     39
                      A                      A                      A
 Frequencies --    988.2488              1027.4064              1032.5806
 Red. masses --      1.3283                 2.8223                 3.4274
 Frc consts  --      0.7643                 1.7552                 2.1531
 IR Inten    --      0.0555                 0.0168                51.9288

                     40                     41                     42
                      A                      A                      A
 Frequencies --   1103.8938              1133.4624              1134.1276
 Red. masses --      3.1315                 1.3515                 3.1241
 Frc consts  --      2.2483                 1.0230                 2.3675
 IR Inten    --     98.9964                13.9631                99.9783

                     43                     44                     45
                      A                      A                      A
 Frequencies --   1151.2631              1196.1629              1207.9065
 Red. masses --      1.2525                 1.2871                 1.2807
 Frc consts  --      0.9781                 1.0851                 1.1009
 IR Inten    --     11.9324                 5.1038                70.6142

                     46                     47                     48
                      A                      A                      A
 Frequencies --   1230.1885              1286.0561              1324.7929
 Red. masses --      2.8745                 4.9797                 1.2913
 Frc consts  --      2.5631                 4.8526                 1.3352
 IR Inten    --     48.1920               721.0667                 0.4371

                     49                     50                     51
                      A                      A                      A
 Frequencies --   1328.7975              1334.5701              1373.2839
 Red. masses --      4.8013                 1.5500                 9.7939
 Frc consts  --      4.9949                 1.6266                10.8825
 IR Inten    --      1.3879                 2.3708               287.3978

                     52                     53                     54
                      A                      A                      A
 Frequencies --   1378.9719              1440.2621              1463.9112
 Red. masses --     10.9467                 2.9263                 3.3502
 Frc consts  --     12.2643                 3.5764                 4.2301
 IR Inten    --    169.6431                 2.4843                 5.2931

                     55                     56                     57
                      A                      A                      A
 Frequencies --   1527.4091              1535.0046              1585.0984
 Red. masses --      2.2980                 2.3587                12.0711
 Frc consts  --      3.1587                 3.2744                17.8694
 IR Inten    --    293.9961                41.2849               195.3222

                     58                     59                     60
                      A                      A                      A
 Frequencies --   1630.2651              1635.3198              1647.7227
 Red. masses --      7.2565                 5.7161                 6.9126
 Frc consts  --     11.3630                 9.0065                11.0575
 IR Inten    --      2.0136               109.6900                71.0357

                     61                     62                     63
                      A                      A                      A
 Frequencies --   1656.7833              3208.6253              3211.0931
 Red. masses --      6.6826                 1.0893                 1.0894
 Frc consts  --     10.8076                 6.6077                 6.6180
 IR Inten    --    105.4905                 5.0739                 1.4383

                     64                     65                     66
                      A                      A                      A
 Frequencies --   3218.5956              3224.3839              3226.0211
 Red. masses --      1.0907                 1.0949                 1.0954
 Frc consts  --      6.6570                 6.7067                 6.7169
 IR Inten    --      1.7545                 1.9208                 0.3550

                     67                     68                     69
                      A                      A                      A
 Frequencies --   3226.6321              3244.4934              3246.0407
 Red. masses --      1.0896                 1.0936                 1.0936
 Frc consts  --      6.6836                 6.7826                 6.7889
 IR Inten    --      1.7104                 1.6752                 2.2872

 - Thermochemistry -
 -------------------
 Temperature   298.150 Kelvin.  Pressure   1.00000 Atm.
 Atom     1 has atomic number  6 and mass  12.00000

 Molecular mass:   249.01927 amu.
 Principal axes and moments of inertia in atomic units:
                           1         2         3
     Eigenvalues --  1361.11422********************
           X            1.00000  -0.00016   0.00079
           Y            0.00016   0.99998   0.00626
           Z           -0.00079  -0.00626   0.99998
 This molecule is an asymmetric top.
 Rotational symmetry number  1.
 Warning -- assumption of classical behavior for rotation
           may cause significant error
 Rotational temperatures (Kelvin)      0.06363     0.00716     0.00675
 Rotational constants (GHZ):           1.32593     0.14921     0.14065
 Zero-point vibrational energy     467849.3 (Joules/Mol)
                                  111.81866 (Kcal/Mol)
 Warning -- explicit consideration of  19 degrees of freedom as
           vibrations may cause significant error
 Vibrational temperatures:      8.37    50.08    59.96    98.42   143.96
          (Kelvin)            192.80   291.07   369.26   407.61   433.78
                              478.85   561.79   611.93   612.66   617.80
                              660.61   720.34   763.27   769.67   900.23
                              924.14   939.86   979.14   989.55  1040.03
                             1081.05  1140.57  1190.65  1196.41  1231.15
                             1238.27  1245.88  1284.90  1379.68  1397.50
                             1410.28  1421.87  1478.21  1485.65  1588.26
                             1630.80  1631.76  1656.41  1721.01  1737.91
                             1769.97  1850.35  1906.08  1911.84  1920.15
                             1975.85  1984.03  2072.22  2106.24  2197.60
                             2208.53  2280.60  2345.59  2352.86  2370.71
                             2383.74  4616.50  4620.05  4630.84  4639.17
                             4641.52  4642.40  4668.10  4670.33

 Zero-point correction=                           0.178194 (Hartree/Particle)
 Thermal correction to Energy=                    0.191984
 Thermal correction to Enthalpy=                  0.192928
 Thermal correction to Gibbs Free Energy=         0.133372
 Sum of electronic and zero-point Energies=          -1202.483776
 Sum of electronic and thermal Energies=             -1202.469986
 Sum of electronic and thermal Enthalpies=           -1202.469042
 Sum of electronic and thermal Free Energies=        -1202.528598

                     E (Thermal)             CV                S
                      KCal/Mol        Cal/Mol-Kelvin    Cal/Mol-Kelvin
 Total                  120.472             52.386            125.346
 Electronic               0.000              0.000              0.000
 Translational            0.889              2.981             42.438
 Rotational               0.889              2.981             33.712
 Vibrational            118.694             46.425             49.196
 Vibration     1          0.593              1.987              9.088
 Vibration     2          0.594              1.983              5.535
 Vibration     3          0.594              1.981              5.178
 Vibration     4          0.598              1.969              4.199
 Vibration     5          0.604              1.949              3.453
 Vibration     6          0.613              1.919              2.888
 Vibration     7          0.639              1.837              2.112
 Vibration     8          0.666              1.752              1.684
 Vibration     9          0.682              1.705              1.514
 Vibration    10          0.693              1.671              1.409
 Vibration    11          0.715              1.610              1.246
 Vibration    12          0.758              1.491              0.998
 Vibration    13          0.787              1.415              0.874
 Vibration    14          0.788              1.414              0.872
 Vibration    15          0.791              1.406              0.861
 Vibration    16          0.817              1.341              0.769
 Vibration    17          0.856              1.249              0.656
 Vibration    18          0.885              1.183              0.586
 Vibration    19          0.890              1.173              0.576

                           ! Non-Optimized Parameters !
 Normal termination of Gaussian 16 at Sat Sep 16 16:37:15 2023.
