 Gaussian 16, Revision B.01,
 Gaussian 16:  EM64L-G16RevB.01 20-Dec-2017

 ---------------------------------------------------------
 # opt freq b3lyp/6-31+g(d) empiricaldispersion=gd3 volume
 ---------------------------------------------------------

 -------------------
 Title Card Required
 -------------------
 Symbolic Z-matrix:
 Charge =  0 Multiplicity = 1

 SCF Done:  E(RB3LYP) =  -744.011974031     A.U. after   16 cycles
 SCF Done:  E(RB3LYP) =  -744.011974033     A.U. after    9 cycles
 SCF Done:  E(RB3LYP) =  -744.011973343     A.U. after   10 cycles
 SCF Done:  E(RB3LYP) =  -744.011974035     A.U. after   10 cycles
 SCF Done:  E(RB3LYP) =  -744.011974077     A.U. after    9 cycles
 Optimization completed.
    -- Stationary point found.
 Normal termination of Gaussian 16 at Fri Sep 22 19:38:09 2023.

 ---------------------------------------------------------------------
 #N Geom=AllCheck Guess=TCheck SCRF=Check GenChk RB3LYP/6-31+G(d) Freq
 ---------------------------------------------------------------------

 Structure from the checkpoint file:  "molecule_57.chk"
 -------------------
 Title Card Required
 -------------------
 Charge =  0 Multiplicity = 1

                         Standard orientation:
 ---------------------------------------------------------------------
 Center     Atomic      Atomic             Coordinates (Angstroms)
 Number     Number       Type             X           Y           Z
 ---------------------------------------------------------------------
      1          6           0       -1.474250   -1.217327   -0.000034
      2          6           0       -0.757065    0.000003    0.000019
      3          6           0       -1.474253    1.217331   -0.000004
      4          6           0       -2.863658    1.220686   -0.000068
      5          6           0       -3.543235   -0.000001   -0.000110
      6          1           0       -0.929013   -2.155716   -0.000029
      7          1           0       -0.929017    2.155721    0.000025
      8          1           0       -3.424061    2.147999   -0.000085
      9          6           0        0.664068    0.000005    0.000076
     10          6           0        1.881702    0.000007    0.000083
     11          6           0        3.305982    0.000002    0.000100
     12          6           0        4.020676   -1.216275    0.000144
     13          6           0        4.020682    1.216275    0.000095
     14          6           0        5.414318   -1.211115    0.000168
     15          1           0        3.472932   -2.154093    0.000157
     16          6           0        5.414325    1.211109    0.000119
     17          1           0        3.472944    2.154096    0.000070
     18          6           0        6.115168   -0.000005    0.000153
     19          1           0        5.955447   -2.153576    0.000199
     20          1           0        5.955458    2.153568    0.000112
     21          1           0        7.201901   -0.000009    0.000176
     22          6           0       -2.863655   -1.220685   -0.000097
     23          1           0       -3.424056   -2.148000   -0.000136
     24          7           0       -5.013066   -0.000002   -0.000175
     25          8           0       -5.589118   -1.090776   -0.000201
     26          8           0       -5.589120    1.090771   -0.000191
 ---------------------------------------------------------------------

 SCF Done:  E(RB3LYP) =  -744.011974077     A.U. after    1 cycles

 The electronic state is 1-A.
 Alpha  occ. eigenvalues --  -19.19619 -19.19618 -14.58374 -10.26739 -10.25534
 Alpha  occ. eigenvalues --  -10.24016 -10.23380 -10.23379 -10.23131 -10.23131
 Alpha  occ. eigenvalues --  -10.22094 -10.22048 -10.22048 -10.21833 -10.21696
 Alpha  occ. eigenvalues --  -10.21685 -10.21653  -1.23544  -1.06288  -0.90722
 Alpha  occ. eigenvalues --   -0.88448  -0.83841  -0.80320  -0.78801  -0.77158
 Alpha  occ. eigenvalues --   -0.76003  -0.71478  -0.64839  -0.64605  -0.63036
 Alpha  occ. eigenvalues --   -0.61629  -0.57851  -0.56286  -0.54420  -0.54166
 Alpha  occ. eigenvalues --   -0.52547  -0.50292  -0.48999  -0.47886  -0.47756
 Alpha  occ. eigenvalues --   -0.46118  -0.45787  -0.44642  -0.42544  -0.41501
 Alpha  occ. eigenvalues --   -0.39905  -0.38724  -0.38147  -0.37253  -0.34582
 Alpha  occ. eigenvalues --   -0.32288  -0.32168  -0.30469  -0.30053  -0.29531
 Alpha  occ. eigenvalues --   -0.29144  -0.27778  -0.24164
 Alpha virt. eigenvalues --   -0.11223  -0.06044  -0.04322  -0.03240  -0.01404
 Alpha virt. eigenvalues --   -0.00920   0.00270   0.01043   0.01918   0.02049
 Alpha virt. eigenvalues --    0.02516   0.03668   0.03974   0.04207   0.04244

 Mulliken charges:
               1
     1  C   -0.603861
     2  C    0.488184
     3  C   -0.603861
     4  C    0.229064
     5  C   -0.372558
     6  H    0.205671
     7  H    0.205671
     8  H    0.232145
     9  C    0.047958
    10  C    0.020564
    11  C    0.240278
    12  C   -0.282176
    13  C   -0.282183
    14  C   -0.176082
    15  H    0.195948
    16  C   -0.176075
    17  H    0.195948
    18  C   -0.198597
    19  H    0.187135
    20  H    0.187135
    21  H    0.186023
    22  C    0.229055
    23  H    0.232146
    24  N   -0.324825
    25  O   -0.031354
    26  O   -0.031355
 Sum of Mulliken charges =   0.00000

 Dipole moment (field-independent basis, Debye):
    X=              6.6509    Y=              0.0000    Z=              0.0002  Tot=              6.6509
 Quadrupole moment (field-independent basis, Debye-Ang):
   XX=           -118.4478   YY=            -88.1109   ZZ=           -102.4188
   XY=              0.0000   XZ=             -0.0008   YZ=             -0.0001

  Exact polarizability: 413.370   0.000 171.350   0.009   0.000  87.472
 Approx polarizability: 582.612   0.000 316.573   0.013   0.000 130.164

                      1                      2                      3
                      A                      A                      A
 Frequencies --     21.7412                33.9887                34.8353
 Red. masses --      4.1714                 7.8132                 6.1680
 Frc consts  --      0.0012                 0.0053                 0.0044
 IR Inten    --      0.0000                 0.3066                 0.1104

                      4                      5                      6
                      A                      A                      A
 Frequencies --     58.8978               100.1240               129.1468
 Red. masses --      7.4459                 6.4213                 6.0336
 Frc consts  --      0.0152                 0.0379                 0.0593
 IR Inten    --      0.0000                 3.6252                 1.0590

                      7                      8                      9
                      A                      A                      A
 Frequencies --    197.1170               214.3358               260.8622
 Red. masses --      6.6225                 8.4244                 7.5429
 Frc consts  --      0.1516                 0.2280                 0.3024
 IR Inten    --      1.6114                 0.1189                 1.8937

                     10                     11                     12
                      A                      A                      A
 Frequencies --    325.7134               411.0666               417.7132
 Red. masses --      5.8954                 2.9048                 2.9878
 Frc consts  --      0.3685                 0.2892                 0.3072
 IR Inten    --      0.0282                 0.0000                 0.0000

                     13                     14                     15
                      A                      A                      A
 Frequencies --    417.7678               427.3353               470.5294
 Red. masses --      5.0334                 8.9528                 8.3000
 Frc consts  --      0.5176                 0.9633                 1.0827
 IR Inten    --      0.0181                 7.9068                 2.7035

                     16                     17                     18
                      A                      A                      A
 Frequencies --    520.2420               524.8622               559.2619
 Red. masses --      3.3190                 8.3488                 6.7002
 Frc consts  --      0.5293                 1.3551                 1.2347
 IR Inten    --     12.4497                 0.2534                 0.1036

                     19                     20                     21
                      A                      A                      A
 Frequencies --    563.1045               603.5042               634.2357
 Red. masses --      4.2027                 7.7085                 6.6067
 Frc consts  --      0.7851                 1.6542                 1.5658
 IR Inten    --      4.0111                 3.5590                 0.0001

                     22                     23                     24
                      A                      A                      A
 Frequencies --    649.2158               689.5866               698.3005
 Red. masses --      7.3436                 3.8823                 1.9835
 Frc consts  --      1.8236                 1.0877                 0.5698
 IR Inten    --      0.1051                 6.0544                40.1522

                     25                     26                     27
                      A                      A                      A
 Frequencies --    732.3403               748.5807               770.2424
 Red. masses --      7.0459                 6.1787                 1.7483
 Frc consts  --      2.2264                 2.0400                 0.6111
 IR Inten    --      6.4269                15.8240                50.6161

                     28                     29                     30
                      A                      A                      A
 Frequencies --    841.9670               845.1854               853.8824
 Red. masses --      7.8162                 1.2463                 1.2483
 Frc consts  --      3.2647                 0.5245                 0.5362
 IR Inten    --     25.1028                 0.0000                 0.0000

                     31                     32                     33
                      A                      A                      A
 Frequencies --    868.8464               874.7992               933.5281
 Red. masses --      1.7141                 7.7216                 1.3964
 Frc consts  --      0.7624                 3.4816                 0.7170
 IR Inten    --     45.2961                33.6209                 3.0016

                     34                     35                     36
                      A                      A                      A
 Frequencies --    981.6733               987.4080               992.3009
 Red. masses --      1.3662                 1.2863                 1.3504
 Frc consts  --      0.7757                 0.7389                 0.7834
 IR Inten    --      0.0000                 0.6996                 0.0000

                     37                     38                     39
                      A                      A                      A
 Frequencies --   1005.2610              1012.9552              1033.3529
 Red. masses --      1.2879                 6.2603                 2.9971
 Frc consts  --      0.7668                 3.7846                 1.8856
 IR Inten    --      0.0115                 1.1706                 0.0841

                     40                     41                     42
                      A                      A                      A
 Frequencies --   1051.8592              1110.5557              1126.7150
 Red. masses --      2.2700                 1.6214                 3.7285
 Frc consts  --      1.4798                 1.1782                 2.7888
 IR Inten    --      3.5110                 5.0852               143.6901

                     43                     44                     45
                      A                      A                      A
 Frequencies --   1149.2324              1165.7995              1201.4569
 Red. masses --      1.3259                 3.3533                 1.1098
 Frc consts  --      1.0318                 2.6852                 0.9439
 IR Inten    --      8.0401                 5.3463                 0.0438

                     46                     47                     48
                      A                      A                      A
 Frequencies --   1217.5364              1220.9483              1326.4883
 Red. masses --      1.1501                 1.2335                 2.4398
 Frc consts  --      1.0045                 1.0834                 2.5294
 IR Inten    --      0.7233                20.3506                 0.7581

                     49                     50                     51
                      A                      A                      A
 Frequencies --   1330.0854              1352.4480              1356.5036
 Red. masses --      2.1418                 3.8122                 3.2223
 Frc consts  --      2.2324                 4.1083                 3.4935
 IR Inten    --      2.6672                31.8719                 9.1755

                     52                     53                     54
                      A                      A                      A
 Frequencies --   1364.7281              1372.0754              1446.3297
 Red. masses --      1.7175                12.9902                 2.9817
 Frc consts  --      1.8846                14.4086                 3.6749
 IR Inten    --      0.7039               807.9941                 2.8228

                     55                     56                     57
                      A                      A                      A
 Frequencies --   1482.1771              1525.9633              1544.6495
 Red. masses --      2.1870                 2.1056                 2.5558
 Frc consts  --      2.8307                 2.8888                 3.5929
 IR Inten    --      4.6338                 0.6035                30.4972

                     58                     59                     60
                      A                      A                      A
 Frequencies --   1577.9449              1616.9789              1638.2341
 Red. masses --     10.4594                 4.9368                 8.6459
 Frc consts  --     15.3440                 7.6051                13.6713
 IR Inten    --    167.7577                 0.4523               101.0408

                     61                     62                     63
                      A                      A                      A
 Frequencies --   1640.8345              1652.1947              2302.8979
 Red. masses --      5.3647                 5.4720                11.9972
 Frc consts  --      8.5098                 8.8007                37.4869
 IR Inten    --    116.4205                64.4873               161.3409

                     64                     65                     66
                      A                      A                      A
 Frequencies --   3183.1781              3191.6439              3202.0499
 Red. masses --      1.0858                 1.0886                 1.0920
 Frc consts  --      6.4823                 6.5334                 6.5965
 IR Inten    --      1.7474                 3.9358                16.4612

                     67                     68                     69
                      A                      A                      A
 Frequencies --   3209.2524              3213.7834              3213.8908
 Red. masses --      1.0944                 1.0905                 1.0911
 Frc consts  --      6.6413                 6.6363                 6.6402
 IR Inten    --     21.0688                 5.9146                 0.0762

                     70                     71                     72
                      A                      A                      A
 Frequencies --   3214.0589              3244.6354              3245.0803
 Red. masses --      1.0974                 1.0929                 1.0938
 Frc consts  --      6.6794                 6.7789                 6.7865
 IR Inten    --     16.3862                 0.2500                 1.7718

 - Thermochemistry -
 -------------------
 Temperature   298.150 Kelvin.  Pressure   1.00000 Atm.
 Atom     1 has atomic number  6 and mass  12.00000

 Molecular mass:   223.06333 amu.
 Principal axes and moments of inertia in atomic units:
                           1         2         3
     Eigenvalues --   776.57497********************
           X            1.00000   0.00000  -0.00003
           Y            0.00000   1.00000   0.00000
           Z            0.00003   0.00000   1.00000
 This molecule is an asymmetric top.
 Rotational symmetry number  1.
 Warning -- assumption of classical behavior for rotation
           may cause significant error
 Rotational temperatures (Kelvin)      0.11153     0.00665     0.00627
 Rotational constants (GHZ):           2.32398     0.13850     0.13071
 Zero-point vibrational energy     509238.5 (Joules/Mol)
                                  121.71091 (Kcal/Mol)
 Warning -- explicit consideration of  20 degrees of freedom as
           vibrations may cause significant error
 Vibrational temperatures:     31.28    48.90    50.12    84.74   144.06
          (Kelvin)            185.81   283.61   308.38   375.32   468.63
                              591.43   601.00   601.07   614.84   676.99
                              748.51   755.16   804.65   810.18   868.31
                              912.52   934.08   992.16  1004.70  1053.67
                             1077.04  1108.21  1211.40  1216.03  1228.55
                             1250.08  1258.64  1343.14  1412.41  1420.66
                             1427.70  1446.35  1457.42  1486.76  1513.39
                             1597.84  1621.09  1653.49  1677.33  1728.63
                             1751.76  1756.67  1908.52  1913.70  1945.87
                             1951.71  1963.54  1974.11  2080.95  2132.52
                             2195.52  2222.41  2270.31  2326.47  2357.05
                             2360.79  2377.14  3313.36  4579.88  4592.06
                             4607.04  4617.40  4623.92  4624.07  4624.31
                             4668.31  4668.95

 Zero-point correction=                           0.193959 (Hartree/Particle)
 Thermal correction to Energy=                    0.207599
 Thermal correction to Enthalpy=                  0.208544
 Thermal correction to Gibbs Free Energy=         0.150432
 Sum of electronic and zero-point Energies=           -743.818015
 Sum of electronic and thermal Energies=              -743.804375
 Sum of electronic and thermal Enthalpies=            -743.803431
 Sum of electronic and thermal Free Energies=         -743.861542

                     E (Thermal)             CV                S
                      KCal/Mol        Cal/Mol-Kelvin    Cal/Mol-Kelvin
 Total                  130.271             51.988            122.305
 Electronic               0.000              0.000              0.000
 Translational            0.889              2.981             42.109
 Rotational               0.889              2.981             33.302
 Vibrational            128.493             46.027             46.894
 Vibration     1          0.593              1.985              6.468
 Vibration     2          0.594              1.983              5.582
 Vibration     3          0.594              1.983              5.533
 Vibration     4          0.596              1.974              4.494
 Vibration     5          0.604              1.949              3.452
 Vibration     6          0.612              1.924              2.959
 Vibration     7          0.637              1.844              2.160
 Vibration     8          0.644              1.819              2.006
 Vibration     9          0.669              1.744              1.656
 Vibration    10          0.710              1.624              1.281
 Vibration    11          0.775              1.446              0.923
 Vibration    12          0.781              1.432              0.900
 Vibration    13          0.781              1.432              0.900
 Vibration    14          0.789              1.411              0.867
 Vibration    15          0.828              1.315              0.736
 Vibration    16          0.875              1.205              0.609
 Vibration    17          0.880              1.195              0.599
 Vibration    18          0.915              1.119              0.525
 Vibration    19          0.919              1.111              0.518
 Vibration    20          0.962              1.024              0.444

 Optimization completed.
    -- Stationary point found.
 Normal termination of Gaussian 16 at Fri Sep 22 19:42:30 2023.
