 Gaussian 16, Revision B.01,
 Gaussian 16:  EM64L-G16RevB.01 20-Dec-2017

 ----------------------------------------------------------------------
 # opt freq b3lyp/6-31+g(d) geom=connectivity empiricaldispersion=gd3 v
 olume
 ----------------------------------------------------------------------

 -------------
 ML molecule74
 -------------
 Symbolic Z-matrix:
 Charge =  0 Multiplicity = 1

 SCF Done:  E(RB3LYP) =  -782.277246165     A.U. after   16 cycles
 SCF Done:  E(RB3LYP) =  -782.308120359     A.U. after   17 cycles
 SCF Done:  E(RB3LYP) =  -782.335521894     A.U. after   17 cycles
 SCF Done:  E(RB3LYP) =  -782.354421847     A.U. after   15 cycles
 SCF Done:  E(RB3LYP) =  -782.354360086     A.U. after   17 cycles
 SCF Done:  E(RB3LYP) =  -782.363185384     A.U. after   20 cycles
 SCF Done:  E(RB3LYP) =  -782.361906108     A.U. after   17 cycles
 SCF Done:  E(RB3LYP) =  -782.373302648     A.U. after   16 cycles
 SCF Done:  E(RB3LYP) =  -782.374231481     A.U. after   17 cycles
 SCF Done:  E(RB3LYP) =  -782.372396624     A.U. after   17 cycles
 SCF Done:  E(RB3LYP) =  -782.387115867     A.U. after   10 cycles
 SCF Done:  E(RB3LYP) =  -782.387115893     A.U. after    8 cycles
 SCF Done:  E(RB3LYP) =  -782.387116025     A.U. after   11 cycles
 SCF Done:  E(RB3LYP) =  -782.387116166     A.U. after   11 cycles
 SCF Done:  E(RB3LYP) =  -782.387116345     A.U. after   11 cycles
 SCF Done:  E(RB3LYP) =  -782.387116538     A.U. after   11 cycles
 SCF Done:  E(RB3LYP) =  -782.387116783     A.U. after   11 cycles
 SCF Done:  E(RB3LYP) =  -782.387116841     A.U. after   11 cycles
 SCF Done:  E(RB3LYP) =  -782.387116844     A.U. after   10 cycles
 Optimization completed.
    -- Stationary point found.
 Normal termination of Gaussian 16 at Sat Sep 16 15:41:40 2023.

 ---------------------------------------------------------------------
 #N Geom=AllCheck Guess=TCheck SCRF=Check GenChk RB3LYP/6-31+G(d) Freq
 ---------------------------------------------------------------------

 Structure from the checkpoint file:  "molecule_74.chk"
 -------------
 ML molecule74
 -------------
 Charge =  0 Multiplicity = 1

                         Standard orientation:
 ---------------------------------------------------------------------
 Center     Atomic      Atomic             Coordinates (Angstroms)
 Number     Number       Type             X           Y           Z
 ---------------------------------------------------------------------
      1          6           0       -3.038979   -0.173402   -0.000019
      2          6           0       -1.920118   -1.007738   -0.000043
      3          6           0       -0.645669   -0.447465    0.000002
      4          6           0       -0.506324    0.948639    0.000074
      5          6           0       -1.638582    1.779700    0.000121
      6          6           0       -2.907918    1.220198    0.000073
      7          1           0       -2.053318   -2.083143   -0.000111
      8          1           0       -1.497909    2.855690    0.000195
      9          1           0       -3.794386    1.843183    0.000099
     10          8           0        0.699262    1.590943    0.000113
     11          6           0        1.877137    0.840566    0.000088
     12          6           0        2.471996    0.501248   -1.212634
     13          6           0        2.471763    0.500760    1.212752
     14          6           0        3.681832   -0.196759   -1.203700
     15          6           0        3.681623   -0.197272    1.203757
     16          6           0        4.303957   -0.561067    0.000027
     17          1           0        4.150738   -0.457764   -2.149784
     18          1           0        4.150326   -0.458663    2.149830
     19          1           0        0.230497   -1.085337   -0.000016
     20          1           0        1.992190    0.788773   -2.143491
     21          7           0       -4.376879   -0.768165   -0.000080
     22          8           0       -5.348236   -0.006090   -0.000083
     23          8           0       -4.463407   -1.999873   -0.000154
     24          1           0        1.991802    0.787899    2.143649
     25          6           0        5.596694   -1.344718   -0.000166
     26          1           0        5.400820   -2.425446   -0.004074
     27          1           0        6.202574   -1.119125   -0.884567
     28          1           0        6.199394   -1.124881    0.887830
 ---------------------------------------------------------------------

 SCF Done:  E(RB3LYP) =  -782.387116844     A.U. after    1 cycles

 The electronic state is 1-A.
 Alpha  occ. eigenvalues --  -19.22137 -19.18949 -19.18938 -14.57772 -10.29179
 Alpha  occ. eigenvalues --  -10.27160 -10.25766 -10.23212 -10.23092 -10.22359
 Alpha  occ. eigenvalues --  -10.22338 -10.22176 -10.21770 -10.21770 -10.21606
 Alpha  occ. eigenvalues --  -10.21604 -10.20345  -1.22863  -1.10976  -1.05569
 Alpha  occ. eigenvalues --   -0.90030  -0.88151  -0.82009  -0.79196  -0.78418
 Alpha  occ. eigenvalues --   -0.77363  -0.72539  -0.69056  -0.65332  -0.64047
 Alpha  occ. eigenvalues --   -0.62390  -0.59677  -0.57643  -0.55900  -0.53545
 Alpha  occ. eigenvalues --   -0.52592  -0.50431  -0.50371  -0.49499  -0.47867
 Alpha  occ. eigenvalues --   -0.46979  -0.45884  -0.44839  -0.43977  -0.43790
 Alpha  occ. eigenvalues --   -0.43551  -0.42328  -0.40552  -0.38639  -0.37970
 Alpha  occ. eigenvalues --   -0.37593  -0.36107  -0.35570  -0.31680  -0.31614
 Alpha  occ. eigenvalues --   -0.29716  -0.28897  -0.27881  -0.26164  -0.26067
 Alpha virt. eigenvalues --   -0.09715  -0.04534  -0.03105  -0.03068  -0.00809
 Alpha virt. eigenvalues --   -0.00521   0.00409   0.01293   0.01558   0.02019
 Alpha virt. eigenvalues --    0.03071   0.03401   0.03743   0.04211   0.05153

 Mulliken charges:
               1
     1  C   -0.099671
     2  C   -0.598198
     3  C    0.665221
     4  C    0.109966
     5  C   -0.758685
     6  C    0.066455
     7  H    0.231413
     8  H    0.205626
     9  H    0.230990
    10  O   -0.316287
    11  C    0.011039
    12  C    0.075197
    13  C    0.073741
    14  C   -0.305522
    15  C   -0.311929
    16  C    0.306813
    17  H    0.183412
    18  H    0.183392
    19  H    0.218071
    20  H    0.194642
    21  N   -0.344302
    22  O   -0.031681
    23  O   -0.036694
    24  H    0.194639
    25  C   -0.801410
    26  H    0.229901
    27  H    0.211997
    28  H    0.211865
 Sum of Mulliken charges =   0.00000

 Dipole moment (field-independent basis, Debye):
    X=              6.7803    Y=              0.7273    Z=             -0.0004  Tot=              6.8192
 Quadrupole moment (field-independent basis, Debye-Ang):
   XX=           -119.4861   YY=           -100.4761   ZZ=            -94.3235
   XY=            -14.9224   XZ=             -0.0050   YZ=             -0.0011

  Exact polarizability: 259.266 -11.654 151.339  -0.009   0.000 124.405
 Approx polarizability: 343.544 -23.685 274.593  -0.017   0.000 207.104

                      1                      2                      3
                      A                      A                      A
 Frequencies --     10.0736                12.4215                38.1120
 Red. masses --      1.8931                 1.4884                 5.5958
 Frc consts  --      0.0001                 0.0001                 0.0048
 IR Inten    --      0.0411                 0.3545                 0.0004

                      4                      5                      6
                      A                      A                      A
 Frequencies --     46.6181                68.4525               100.4883
 Red. masses --      5.1298                 5.6371                 8.0474
 Frc consts  --      0.0066                 0.0156                 0.0479
 IR Inten    --      0.3541                 0.0007                 3.4956

                      7                      8                      9
                      A                      A                      A
 Frequencies --    147.8950               210.3136               278.7371
 Red. masses --      4.6370                 7.9695                 5.6759
 Frc consts  --      0.0598                 0.2077                 0.2598
 IR Inten    --      1.0376                 0.7438                 0.9824

                     10                     11                     12
                      A                      A                      A
 Frequencies --    293.4652               327.6372               338.5315
 Red. masses --      6.1616                 3.6798                 4.8556
 Frc consts  --      0.3126                 0.2327                 0.3279
 IR Inten    --      0.5516                 0.0482                 1.1477

                     13                     14                     15
                      A                      A                      A
 Frequencies --    410.7165               424.3440               426.7433
 Red. masses --      7.0252                 3.0526                 3.1941
 Frc consts  --      0.6982                 0.3239                 0.3427
 IR Inten    --      0.5885                 0.1912                 0.2262

                     16                     17                     18
                      A                      A                      A
 Frequencies --    433.7666               493.3131               500.8837
 Red. masses --      3.9191                 3.9914                 2.9470
 Frc consts  --      0.4345                 0.5723                 0.4356
 IR Inten    --      3.3908                18.7192                 5.8773

                     19                     20                     21
                      A                      A                      A
 Frequencies --    535.1329               570.6103               633.3410
 Red. masses --      5.8375                 4.3681                 6.2478
 Frc consts  --      0.9849                 0.8380                 1.4766
 IR Inten    --      2.1011                 7.5676                 0.6887

                     22                     23                     24
                      A                      A                      A
 Frequencies --    653.2422               653.7126               687.5410
 Red. masses --      6.9525                 6.2751                 3.9151
 Frc consts  --      1.7480                 1.5800                 1.0904
 IR Inten    --      0.0533                 9.5606                 4.6798

                     25                     26                     27
                      A                      A                      A
 Frequencies --    717.3398               751.6062               752.1047
 Red. masses --      3.5981                 6.7661                 3.7454
 Frc consts  --      1.0909                 2.2520                 1.2482
 IR Inten    --      0.8857                23.9413                 6.1611

                     28                     29                     30
                      A                      A                      A
 Frequencies --    813.1144               828.9140               840.9138
 Red. masses --      4.7668                 1.2468                 1.2504
 Frc consts  --      1.8569                 0.5047                 0.5209
 IR Inten    --      9.3108                 0.0077                 0.5823

                     31                     32                     33
                      A                      A                      A
 Frequencies --    851.9255               861.2990               863.7766
 Red. masses --      2.2493                 1.7237                 4.9350
 Frc consts  --      0.9618                 0.7534                 2.1694
 IR Inten    --     15.4577                43.9088                34.1169

                     34                     35                     36
                      A                      A                      A
 Frequencies --    894.1071               959.7775               973.4970
 Red. masses --      6.6746                 1.3128                 1.3513
 Frc consts  --      3.1438                 0.7125                 0.7545
 IR Inten    --     59.7801                 1.4624                 0.0070

                     37                     38                     39
                      A                      A                      A
 Frequencies --    979.6014               987.3312              1022.1518
 Red. masses --      1.2946                 1.3274                 1.3934
 Frc consts  --      0.7319                 0.7624                 0.8577
 IR Inten    --      1.9608                 0.0157                 0.0683

                     40                     41                     42
                      A                      A                      A
 Frequencies --   1026.6581              1038.1870              1073.1734
 Red. masses --      2.8062                 2.7321                 1.5190
 Frc consts  --      1.7427                 1.7350                 1.0307
 IR Inten    --      0.0584                17.8573                 8.8856

                     43                     44                     45
                      A                      A                      A
 Frequencies --   1134.4729              1142.3440              1151.0919
 Red. masses --      3.2728                 1.2933                 1.2498
 Frc consts  --      2.4818                 0.9944                 0.9757
 IR Inten    --    123.9479                 7.7412                11.5873

                     46                     47                     48
                      A                      A                      A
 Frequencies --   1197.3414              1207.6543              1230.5510
 Red. masses --      1.4097                 1.2944                 4.0617
 Frc consts  --      1.1907                 1.1122                 3.6237
 IR Inten    --      9.7786                88.8887                26.6432

                     49                     50                     51
                      A                      A                      A
 Frequencies --   1235.0015              1288.1553              1332.9981
 Red. masses --      2.0374                 5.0247                 1.3312
 Frc consts  --      1.8309                 4.9124                 1.3937
 IR Inten    --     45.8437               691.2560                 2.5584

                     52                     53                     54
                      A                      A                      A
 Frequencies --   1335.2137              1343.7278              1372.5839
 Red. masses --      1.7695                 3.0965                10.2022
 Frc consts  --      1.8587                 3.2942                11.3246
 IR Inten    --      0.5405                 0.0615               357.1525

                     55                     56                     57
                      A                      A                      A
 Frequencies --   1378.7240              1440.9214              1447.6594
 Red. masses --     10.4644                 1.2311                 2.5807
 Frc consts  --     11.7198                 1.5060                 3.1866
 IR Inten    --    116.8708                 0.9272                 0.2398

                     58                     59                     60
                      A                      A                      A
 Frequencies --   1464.6777              1513.7755              1514.3623
 Red. masses --      3.3809                 1.0523                 1.0983
 Frc consts  --      4.2733                 1.4208                 1.4840
 IR Inten    --      6.0787                 9.6697                 8.9213

                     61                     62                     63
                      A                      A                      A
 Frequencies --   1533.2319              1551.0419              1581.9911
 Red. masses --      2.3420                 2.5156                12.0484
 Frc consts  --      3.2438                 3.5656                17.7660
 IR Inten    --    180.4702                88.4272               200.3822

                     64                     65                     66
                      A                      A                      A
 Frequencies --   1634.3438              1641.9611              1650.2203
 Red. masses --      6.2692                 5.9663                 7.4738
 Frc consts  --      9.8662                 9.4773                11.9916
 IR Inten    --      3.6007               174.4360                99.6265

                     67                     68                     69
                      A                      A                      A
 Frequencies --   1662.8038              3037.0709              3093.6742
 Red. masses --      5.8955                 1.0401                 1.0961
 Frc consts  --      9.6041                 5.6526                 6.1808
 IR Inten    --     21.3462                33.1015                18.8312

                     70                     71                     72
                      A                      A                      A
 Frequencies --   3118.5905              3180.7631              3181.2403
 Red. masses --      1.1028                 1.0892                 1.0891
 Frc consts  --      6.3191                 6.4926                 6.4940
 IR Inten    --     15.4671                13.1415                18.0618

                     73                     74                     75
                      A                      A                      A
 Frequencies --   3209.4520              3210.4724              3217.6478
 Red. masses --      1.0936                 1.0942                 1.0906
 Frc consts  --      6.6368                 6.6446                 6.6525
 IR Inten    --      7.8786                 1.8096                 2.0516

                     76                     77                     78
                      A                      A                      A
 Frequencies --   3227.6807              3244.1419              3245.3958
 Red. masses --      1.0893                 1.0936                 1.0936
 Frc consts  --      6.6865                 6.7814                 6.7862
 IR Inten    --      1.3331                 1.1750                 2.1105

 - Thermochemistry -
 -------------------
 Temperature   298.150 Kelvin.  Pressure   1.00000 Atm.
 Atom     1 has atomic number  6 and mass  12.00000

 Molecular mass:   229.07389 amu.
 Principal axes and moments of inertia in atomic units:
                           1         2         3
     Eigenvalues --  1258.053659715.70907**********
           X            0.99989  -0.01472   0.00000
           Y            0.01472   0.99989  -0.00001
           Z            0.00000   0.00001   1.00000
 This molecule is an asymmetric top.
 Rotational symmetry number  1.
 Warning -- assumption of classical behavior for rotation
           may cause significant error
 Rotational temperatures (Kelvin)      0.06885     0.00891     0.00839
 Rotational constants (GHZ):           1.43455     0.18575     0.17472
 Zero-point vibrational energy     565143.1 (Joules/Mol)
                                  135.07245 (Kcal/Mol)
 Warning -- explicit consideration of  20 degrees of freedom as
           vibrations may cause significant error
 Vibrational temperatures:     14.49    17.87    54.83    67.07    98.49
          (Kelvin)            144.58   212.79   302.59   401.04   422.23
                              471.40   487.07   590.93   610.54   613.99
                              624.09   709.77   720.66   769.94   820.98
                              911.24   939.87   940.55   989.22  1032.09
                             1081.39  1082.11  1169.89  1192.62  1209.89
                             1225.73  1239.22  1242.78  1286.42  1380.91
                             1400.65  1409.43  1420.55  1470.65  1477.13
                             1493.72  1544.06  1632.25  1643.58  1656.16
                             1722.71  1737.55  1770.49  1776.89  1853.37
                             1917.89  1921.07  1933.32  1974.84  1983.68
                             2073.16  2082.86  2107.34  2177.99  2178.83
                             2205.98  2231.60  2276.13  2351.46  2362.42
                             2374.30  2392.40  4369.67  4451.11  4486.96
                             4576.41  4577.10  4617.69  4619.15  4629.48
                             4643.91  4667.60  4669.40

 Zero-point correction=                           0.215252 (Hartree/Particle)
 Thermal correction to Energy=                    0.229756
 Thermal correction to Enthalpy=                  0.230700
 Thermal correction to Gibbs Free Energy=         0.169026
 Sum of electronic and zero-point Energies=           -782.171865
 Sum of electronic and thermal Energies=              -782.157361
 Sum of electronic and thermal Enthalpies=            -782.156417
 Sum of electronic and thermal Free Energies=         -782.218091

                     E (Thermal)             CV                S
                      KCal/Mol        Cal/Mol-Kelvin    Cal/Mol-Kelvin
 Total                  144.174             54.563            129.805
 Electronic               0.000              0.000              0.000
 Translational            0.889              2.981             42.189
 Rotational               0.889              2.981             33.201
 Vibrational            142.397             48.602             54.415
 Vibration     1          0.593              1.987              7.996
 Vibration     2          0.593              1.987              7.580
 Vibration     3          0.594              1.982              5.355
 Vibration     4          0.595              1.979              4.956
 Vibration     5          0.598              1.969              4.197
 Vibration     6          0.604              1.949              3.445
 Vibration     7          0.617              1.905              2.699
 Vibration     8          0.642              1.825              2.041
 Vibration     9          0.679              1.713              1.541
 Vibration    10          0.688              1.686              1.454
 Vibration    11          0.711              1.620              1.272
 Vibration    12          0.719              1.599              1.219
 Vibration    13          0.775              1.447              0.924
 Vibration    14          0.786              1.417              0.877
 Vibration    15          0.788              1.412              0.869
 Vibration    16          0.795              1.397              0.846
 Vibration    17          0.849              1.265              0.675
 Vibration    18          0.856              1.248              0.656
 Vibration    19          0.890              1.172              0.576
 Vibration    20          0.927              1.095              0.503

                           ! Non-Optimized Parameters !
 Normal termination of Gaussian 16 at Sat Sep 16 15:46:55 2023.
