 Gaussian 16, Revision B.01,
 Gaussian 16:  EM64L-G16RevB.01 20-Dec-2017

 ----------------------------------------------------------------------
 # opt=cartesian freq b3lyp/6-31+g(d) nosymm empiricaldispersion=gd3 vo
 lume
 ----------------------------------------------------------------------

 -------------------
 Title Card Required
 -------------------
 Symbolic Z-matrix:
 Charge =  0 Multiplicity = 1

 SCF Done:  E(RB3LYP) =  -658.607051762     A.U. after   16 cycles
 SCF Done:  E(RB3LYP) =  -658.607231636     A.U. after   12 cycles
 SCF Done:  E(RB3LYP) =  -658.607236564     A.U. after   13 cycles
 SCF Done:  E(RB3LYP) =  -658.607244817     A.U. after   12 cycles
 SCF Done:  E(RB3LYP) =  -658.607246298     A.U. after   11 cycles
 SCF Done:  E(RB3LYP) =  -658.607247064     A.U. after   11 cycles
 SCF Done:  E(RB3LYP) =  -658.607239711     A.U. after   13 cycles
 SCF Done:  E(RB3LYP) =  -658.607248234     A.U. after   11 cycles
 SCF Done:  E(RB3LYP) =  -658.607247299     A.U. after   12 cycles
 SCF Done:  E(RB3LYP) =  -658.607248939     A.U. after   11 cycles
 SCF Done:  E(RB3LYP) =  -658.607249022     A.U. after   11 cycles
 SCF Done:  E(RB3LYP) =  -658.607247702     A.U. after   11 cycles
 SCF Done:  E(RB3LYP) =  -658.607249039     A.U. after    9 cycles
 SCF Done:  E(RB3LYP) =  -658.607249009     A.U. after   11 cycles
 SCF Done:  E(RB3LYP) =  -658.607249036     A.U. after   11 cycles
 SCF Done:  E(RB3LYP) =  -658.607249038     A.U. after   10 cycles
 SCF Done:  E(RB3LYP) =  -658.607248937     A.U. after   11 cycles
 SCF Done:  E(RB3LYP) =  -658.607248920     A.U. after   11 cycles
 SCF Done:  E(RB3LYP) =  -658.607249042     A.U. after    8 cycles
 Optimization completed.
    -- Stationary point found.
 Normal termination of Gaussian 16 at Mon Sep 18 11:54:07 2023.

 ---------------------------------------------------------------------
 #N Geom=AllCheck Guess=TCheck SCRF=Check GenChk RB3LYP/6-31+G(d) Freq
 ---------------------------------------------------------------------

 Structure from the checkpoint file:  "MOLECULE_38.chk"
 -------------------
 Title Card Required
 -------------------
 Charge =  0 Multiplicity = 1

                          Input orientation:
 ---------------------------------------------------------------------
 Center     Atomic      Atomic             Coordinates (Angstroms)
 Number     Number       Type             X           Y           Z
 ---------------------------------------------------------------------
      1          6           0       -0.024840   -0.048631    0.019719
      2          6           0       -0.021323   -0.035799    1.238565
      3          6           0       -0.010034   -0.023490    2.603377
      4          6           0       -0.001254   -0.013539    3.824519
      5          6           0        0.009153   -0.001713    5.248225
      6          6           0        0.653285    1.038304    5.951633
      7          6           0       -0.624177   -1.030033    5.978132
      8          6           0        0.661119    1.045136    7.345571
      9          1           0        1.142027    1.831574    5.393601
     10          6           0       -0.611143   -1.014104    7.371953
     11          1           0       -1.120796   -1.832505    5.440555
     12          6           0        0.030237    0.021268    8.060671
     13          1           0        1.160935    1.851754    7.875775
     14          1           0       -1.102666   -1.811996    7.922712
     15          1           0        0.038442    0.030121    9.147454
     16          6           0       -0.069657   -0.062122   -1.439649
     17          1           0        0.566104   -0.878209   -1.815979
     18          1           0        0.371523    0.870690   -1.820085
     19          6           0       -1.495820   -0.226826   -2.022748
     20          6           0       -1.464690   -0.091629   -3.555771
     21          6           0       -2.136488   -1.563875   -1.611387
     22          6           0       -2.862472   -0.262611   -4.172225
     23          1           0       -0.790780   -0.859961   -3.967340
     24          6           0       -3.535432   -1.736810   -2.223696
     25          1           0       -1.486433   -2.385835   -1.952228
     26          6           0       -3.500301   -1.596498   -3.753420
     27          1           0       -3.506128    0.565948   -3.839679
     28          1           0       -3.952022   -2.711557   -1.938186
     29          1           0       -4.513067   -1.681126   -4.168935
     30          1           0       -1.041686    0.882296   -3.839105
     31          1           0       -2.801515   -0.193295   -5.266259
     32          1           0       -2.913986   -2.425711   -4.178509
     33          1           0       -4.208591   -0.972884   -1.805611
     34          1           0       -2.185825   -1.634101   -0.517902
     35          1           0       -2.116308    0.588142   -1.619110
 ---------------------------------------------------------------------

 SCF Done:  E(RB3LYP) =  -658.607249042     A.U. after    1 cycles

 Alpha  occ. eigenvalues --  -10.22693 -10.21703 -10.20907 -10.20688 -10.20682
 Alpha  occ. eigenvalues --  -10.20603 -10.20561 -10.20475 -10.20458 -10.20403
 Alpha  occ. eigenvalues --  -10.20299 -10.20044 -10.18832 -10.18625 -10.18417
 Alpha  occ. eigenvalues --  -10.18387 -10.18304  -0.87111  -0.84548  -0.80631
 Alpha  occ. eigenvalues --   -0.79187  -0.76609  -0.75859  -0.74466  -0.73065
 Alpha  occ. eigenvalues --   -0.69417  -0.63831  -0.61744  -0.61474  -0.60215
 Alpha  occ. eigenvalues --   -0.58385  -0.55896  -0.54080  -0.49047  -0.48163
 Alpha  occ. eigenvalues --   -0.47755  -0.46493  -0.45942  -0.44508  -0.44454
 Alpha  occ. eigenvalues --   -0.43561  -0.43354  -0.41340  -0.39003  -0.38744
 Alpha  occ. eigenvalues --   -0.38215  -0.36936  -0.36673  -0.36084  -0.34760
 Alpha  occ. eigenvalues --   -0.34594  -0.33996  -0.33489  -0.32340  -0.30990
 Alpha  occ. eigenvalues --   -0.30305  -0.28580  -0.26511  -0.24193  -0.22283
 Alpha virt. eigenvalues --   -0.05439  -0.02012  -0.01626   0.00160   0.00488
 Alpha virt. eigenvalues --    0.01367   0.01851   0.01901   0.02450   0.02517
 Alpha virt. eigenvalues --    0.03229   0.03908   0.04456   0.04965   0.05240

 Mulliken charges:
               1
     1  C    0.251358
     2  C    0.724506
     3  C    1.409828
     4  C   -1.403942
     5  C    0.560707
     6  C   -0.491262
     7  C   -0.515236
     8  C    0.037072
     9  H    0.196392
    10  C    0.042552
    11  H    0.195869
    12  C   -0.187160
    13  H    0.183311
    14  H    0.183194
    15  H    0.181726
    16  C   -1.926862
    17  H    0.237989
    18  H    0.231845
    19  C    0.115280
    20  C   -0.370355
    21  C   -0.341382
    22  C   -0.625679
    23  H    0.200678
    24  C   -0.478368
    25  H    0.197869
    26  C   -0.396312
    27  H    0.199813
    28  H    0.196456
    29  H    0.193354
    30  H    0.194168
    31  H    0.196177
    32  H    0.195225
    33  H    0.198479
    34  H    0.213787
    35  H    0.198922
 Sum of Mulliken charges =   0.00000

 Dipole moment (field-independent basis, Debye):
    X=             -0.4600    Y=             -0.0912    Z=             -0.5421  Tot=              0.7168
 Quadrupole moment (field-independent basis, Debye-Ang):
   XX=           -104.1609   YY=           -100.8566   ZZ=            -83.1247
   XY=              4.0740   XZ=              0.9573   YZ=              0.3765

  Exact polarizability: 147.160  22.864 153.598  23.192   6.210 382.233
 Approx polarizability: 205.634  30.871 236.182   3.731   3.781 541.585

                      1                      2                      3
                      A                      A                      A
 Frequencies --     10.7740                23.5610                29.5744
 Red. masses --      3.6173                 5.0437                 3.4839
 Frc consts  --      0.0002                 0.0016                 0.0018
 IR Inten    --      0.0071                 0.3771                 0.4876

                      4                      5                      6
                      A                      A                      A
 Frequencies --     62.4636                72.0390               137.5620
 Red. masses --      4.5147                 4.8940                 3.3700
 Frc consts  --      0.0104                 0.0150                 0.0376
 IR Inten    --      0.7059                 0.8771                 0.0680

                      7                      8                      9
                      A                      A                      A
 Frequencies --    170.9313               189.4106               232.8153
 Red. masses --      4.1776                 4.9896                 2.5660
 Frc consts  --      0.0719                 0.1055                 0.0819
 IR Inten    --      1.0445                 0.2034                 0.0843

                     10                     11                     12
                      A                      A                      A
 Frequencies --    246.7068               297.6524               325.3822
 Red. masses --      2.2224                 3.9361                 5.6808
 Frc consts  --      0.0797                 0.2055                 0.3544
 IR Inten    --      0.0822                 1.0340                 0.5924

                     13                     14                     15
                      A                      A                      A
 Frequencies --    337.5420               390.7713               409.8883
 Red. masses --      1.8026                 4.6083                 4.5596
 Frc consts  --      0.1210                 0.4146                 0.4513
 IR Inten    --      0.2887                 1.9484                 1.8006

                     16                     17                     18
                      A                      A                      A
 Frequencies --    412.1108               446.5980               452.2888
 Red. masses --      2.9170                 2.1701                 2.5650
 Frc consts  --      0.2919                 0.2550                 0.3091
 IR Inten    --      0.0012                 1.0453                 0.1301

                     19                     20                     21
                      A                      A                      A
 Frequencies --    486.0882               505.6203               551.0224
 Red. masses --      4.7369                 3.9664                 2.9661
 Frc consts  --      0.6594                 0.5974                 0.5306
 IR Inten    --      1.3997                 2.6622                 6.3716

                     22                     23                     24
                      A                      A                      A
 Frequencies --    584.7527               630.5840               663.9835
 Red. masses --      2.4733                 6.6747                 9.0450
 Frc consts  --      0.4983                 1.5638                 2.3495
 IR Inten    --      0.9171                 0.0672                 2.0820

                     25                     26                     27
                      A                      A                      A
 Frequencies --    677.7528               700.8080               753.1347
 Red. masses --      6.5637                 1.9510                 1.9548
 Frc consts  --      1.7764                 0.5646                 0.6533
 IR Inten    --      7.8053                36.2623                42.4084

                     28                     29                     30
                      A                      A                      A
 Frequencies --    787.8865               809.2242               831.3386
 Red. masses --      2.4885                 1.5113                 5.0967
 Frc consts  --      0.9102                 0.5831                 2.0754
 IR Inten    --      1.0514                 0.0508                 5.3594

                     31                     32                     33
                      A                      A                      A
 Frequencies --    841.2674               853.5853               857.4744
 Red. masses --      4.2307                 1.2474                 2.2289
 Frc consts  --      1.7641                 0.5355                 0.9656
 IR Inten    --      0.5649                 0.0003                 2.2426

                     34                     35                     36
                      A                      A                      A
 Frequencies --    863.0823               917.0267               933.4432
 Red. masses --      1.7903                 1.8834                 1.4708
 Frc consts  --      0.7858                 0.9332                 0.7551
 IR Inten    --      1.1875                 2.4919                 3.1746

                     37                     38                     39
                      A                      A                      A
 Frequencies --    941.0684               954.1353               973.5820
 Red. masses --      1.4669                 1.7395                 2.3723
 Frc consts  --      0.7654                 0.9330                 1.3248
 IR Inten    --      1.2054                 1.5963                 0.9103

                     40                     41                     42
                      A                      A                      A
 Frequencies --    979.9990              1002.1146              1012.5359
 Red. masses --      1.3642                 1.2833                 6.2449
 Frc consts  --      0.7719                 0.7593                 3.7722
 IR Inten    --      0.0001                 0.0253                 0.0910

                     43                     44                     45
                      A                      A                      A
 Frequencies --   1051.1094              1052.4486              1075.1124
 Red. masses --      2.2973                 1.9245                 1.8310
 Frc consts  --      1.4955                 1.2560                 1.2469
 IR Inten    --      7.1845                 0.2731                 4.4886

                     46                     47                     48
                      A                      A                      A
 Frequencies --   1083.3657              1104.7713              1109.1756
 Red. masses --      2.1183                 2.2986                 1.6275
 Frc consts  --      1.4648                 1.6530                 1.1797
 IR Inten    --      8.7173                 0.0252                 4.9109

                     49                     50                     51
                      A                      A                      A
 Frequencies --   1114.2331              1132.6973              1161.2014
 Red. masses --      1.2791                 3.6297                 1.8088
 Frc consts  --      0.9357                 2.7438                 1.4370
 IR Inten    --      1.9531                 0.2540                 0.0845

                     52                     53                     54
                      A                      A                      A
 Frequencies --   1200.1646              1209.6985              1216.7774
 Red. masses --      1.1084                 1.3254                 1.1450
 Frc consts  --      0.9406                 1.1427                 0.9988
 IR Inten    --      0.0085                 0.2873                 0.3678

                     55                     56                     57
                      A                      A                      A
 Frequencies --   1236.3896              1292.6031              1302.2047
 Red. masses --      1.3516                 1.2010                 1.2614
 Frc consts  --      1.2174                 1.1823                 1.2603
 IR Inten    --      7.9453                 0.0302                 3.5296

                     58                     59                     60
                      A                      A                      A
 Frequencies --   1313.6871              1318.5794              1324.6945
 Red. masses --      1.2552                 1.3049                 3.3612
 Frc consts  --      1.2762                 1.3367                 3.4752
 IR Inten    --     15.3791                10.3512                 0.0924

                     61                     62                     63
                      A                      A                      A
 Frequencies --   1351.0804              1356.7696              1363.9638
 Red. masses --      2.3586                 1.3157                 1.6797
 Frc consts  --      2.5367                 1.4270                 1.8411
 IR Inten    --      1.2296                 0.5577                 0.3926

                     64                     65                     66
                      A                      A                      A
 Frequencies --   1374.4676              1383.5912              1393.6351
 Red. masses --      1.4922                 1.4396                 1.4152
 Frc consts  --      1.6609                 1.6237                 1.6194
 IR Inten    --      4.5125                 1.7272                 0.8491

                     67                     68                     69
                      A                      A                      A
 Frequencies --   1398.6269              1400.3413              1415.9299
 Red. masses --      1.4650                 1.5063                 1.4960
 Frc consts  --      1.6885                 1.7403                 1.7671
 IR Inten    --      5.1358                 8.0914                 2.5843

                     70                     71                     72
                      A                      A                      A
 Frequencies --   1480.9500              1488.8098              1506.8787
 Red. masses --      2.1850                 1.0903                 1.0848
 Frc consts  --      2.8234                 1.4239                 1.4513
 IR Inten    --      4.0067                 7.4730                 0.3777

                     73                     74                     75
                      A                      A                      A
 Frequencies --   1510.0010              1512.9516              1518.2148
 Red. masses --      1.0910                 1.0942                 1.0813
 Frc consts  --      1.4656                 1.4756                 1.4685
 IR Inten    --      3.3595                 3.6588                13.2310

                     76                     77                     78
                      A                      A                      A
 Frequencies --   1530.7957              1535.1907              1615.8126
 Red. masses --      1.0961                 2.2873                 4.9282
 Frc consts  --      1.5134                 3.1761                 7.5810
 IR Inten    --      0.7899                17.8173                 1.1657

                     79                     80                     81
                      A                      A                      A
 Frequencies --   1647.8344              2245.0535              2339.7981
 Red. masses --      5.3009                11.9521                11.9460
 Frc consts  --      8.4806                35.4934                38.5327
 IR Inten    --     12.2267                 0.5684                16.4108

                     82                     83                     84
                      A                      A                      A
 Frequencies --   3001.0573              3002.1400              3006.4558
 Red. masses --      1.0722                 1.0683                 1.0634
 Frc consts  --      5.6894                 5.6728                 5.6632
 IR Inten    --      7.4470                17.3753                19.5734

                     85                     86                     87
                      A                      A                      A
 Frequencies --   3011.4354              3015.2650              3016.1756
 Red. masses --      1.0715                 1.0641                 1.0664
 Frc consts  --      5.7254                 5.6999                 5.7162
 IR Inten    --     24.5946                10.8366                 6.7241

                     88                     89                     90
                      A                      A                      A
 Frequencies --   3020.1339              3042.2562              3054.4229
 Red. masses --      1.0666                 1.1004                 1.0971
 Frc consts  --      5.7321                 6.0004                 6.0306
 IR Inten    --     95.9504                 2.4093                77.7787

                     91                     92                     93
                      A                      A                      A
 Frequencies --   3062.6217              3063.5586              3068.5813
 Red. masses --      1.0953                 1.0947                 1.1021
 Frc consts  --      6.0529                 6.0535                 6.1145
 IR Inten    --     82.4532                56.3616                89.6858

                     94                     95                     96
                      A                      A                      A
 Frequencies --   3077.7316              3179.6037              3188.3436
 Red. masses --      1.0950                 1.0856                 1.0887
 Frc consts  --      6.1113                 6.4665                 6.5208
 IR Inten    --     51.5309                 1.8320                 6.7364

                     97                     98                     99
                      A                      A                      A
 Frequencies --   3200.2174              3207.9980              3212.1871
 Red. masses --      1.0922                 1.0941                 1.0973
 Frc consts  --      6.5904                 6.6342                 6.6707
 IR Inten    --     22.6263                22.6761                12.1581

 - Thermochemistry -
 -------------------
 Temperature   298.150 Kelvin.  Pressure   1.00000 Atm.
 Atom     1 has atomic number  6 and mass  12.00000

 Molecular mass:   222.14085 amu.
 Principal axes and moments of inertia in atomic units:
                           1         2         3
     Eigenvalues --  1162.42771********************
           X            0.24003   0.75624  -0.60867
           Y            0.08597   0.60798   0.78929
           Z            0.96695  -0.24178   0.08092
 This molecule is an asymmetric top.
 Rotational symmetry number  1.
 Warning -- assumption of classical behavior for rotation
           may cause significant error
 Rotational temperatures (Kelvin)      0.07451     0.00550     0.00523
 Rotational constants (GHZ):           1.55256     0.11465     0.10891
 Zero-point vibrational energy     792283.0 (Joules/Mol)
                                  189.36019 (Kcal/Mol)
 Warning -- explicit consideration of  22 degrees of freedom as
           vibrations may cause significant error
 Vibrational temperatures:     15.50    33.90    42.55    89.87   103.65
          (Kelvin)            197.92   245.93   272.52   334.97   354.96
                              428.26   468.15   485.65   562.23   589.74
                              592.94   642.55   650.74   699.37   727.47
                              792.80   841.33   907.27   955.32   975.14
                             1008.31  1083.59  1133.59  1164.29  1196.11
                             1210.40  1228.12  1233.71  1241.78  1319.40
                             1343.02  1353.99  1372.79  1400.77  1410.00
                             1441.82  1456.81  1512.31  1514.24  1546.85
                             1558.72  1589.52  1595.86  1603.13  1629.70
                             1670.71  1726.77  1740.49  1750.67  1778.89
                             1859.77  1873.58  1890.10  1897.14  1905.94
                             1943.90  1952.09  1962.44  1977.55  1990.68
                             2005.13  2012.31  2014.78  2037.21  2130.76
                             2142.07  2168.06  2172.55  2176.80  2184.37
                             2202.47  2208.80  2324.79  2370.87  3230.13
                             3366.45  4317.85  4319.41  4325.62  4332.78
                             4338.29  4339.60  4345.30  4377.13  4394.63
                             4406.43  4407.78  4415.00  4428.17  4574.74
                             4587.32  4604.40  4615.59  4621.62

 Zero-point correction=                           0.301765 (Hartree/Particle)
 Thermal correction to Energy=                    0.317068
 Thermal correction to Enthalpy=                  0.318012
 Thermal correction to Gibbs Free Energy=         0.255565
 Sum of electronic and zero-point Energies=           -658.305484
 Sum of electronic and thermal Energies=              -658.290181
 Sum of electronic and thermal Enthalpies=            -658.289237
 Sum of electronic and thermal Free Energies=         -658.351684

                     E (Thermal)             CV                S
                      KCal/Mol        Cal/Mol-Kelvin    Cal/Mol-Kelvin
 Total                  198.963             59.358            131.430
 Electronic               0.000              0.000              0.000
 Translational            0.889              2.981             42.097
 Rotational               0.889              2.981             34.071
 Vibrational            197.186             53.397             55.262
 Vibration     1          0.593              1.987              7.863
 Vibration     2          0.593              1.985              6.309
 Vibration     3          0.593              1.984              5.858
 Vibration     4          0.597              1.972              4.378
 Vibration     5          0.598              1.967              4.097
 Vibration     6          0.614              1.916              2.838
 Vibration     7          0.626              1.878              2.425
 Vibration     8          0.633              1.854              2.234
 Vibration     9          0.654              1.791              1.857
 Vibration    10          0.661              1.768              1.754
 Vibration    11          0.691              1.678              1.430
 Vibration    12          0.709              1.625              1.283
 Vibration    13          0.718              1.601              1.224
 Vibration    14          0.758              1.490              0.997
 Vibration    15          0.774              1.449              0.927
 Vibration    16          0.776              1.444              0.919
 Vibration    17          0.806              1.368              0.806
 Vibration    18          0.811              1.356              0.789
 Vibration    19          0.842              1.281              0.694
 Vibration    20          0.861              1.238              0.644
 Vibration    21          0.906              1.137              0.542
 Vibration    22          0.942              1.064              0.477

 Normal termination of Gaussian 16 at Mon Sep 18 12:00:51 2023.
