 Gaussian 16, Revision B.01,
 Gaussian 16:  EM64L-G16RevB.01 20-Dec-2017

 ----------------------------------------------------------------------
 # opt freq b3lyp/6-31+g(d) geom=connectivity empiricaldispersion=gd3 v
 olume
 ----------------------------------------------------------------------

 -------------------
 Title Card Required
 -------------------
 Symbolic Z-matrix:
 Charge =  0 Multiplicity = 1

 SCF Done:  E(RB3LYP) =  -844.721769107     A.U. after   15 cycles
 SCF Done:  E(RB3LYP) =  -844.723105169     A.U. after   13 cycles
 SCF Done:  E(RB3LYP) =  -844.723197706     A.U. after   13 cycles
 SCF Done:  E(RB3LYP) =  -844.723087200     A.U. after   14 cycles
 SCF Done:  E(RB3LYP) =  -844.723329692     A.U. after   13 cycles
 SCF Done:  E(RB3LYP) =  -844.723332543     A.U. after   13 cycles
 SCF Done:  E(RB3LYP) =  -844.723339934     A.U. after   12 cycles
 SCF Done:  E(RB3LYP) =  -844.723341781     A.U. after   11 cycles
 SCF Done:  E(RB3LYP) =  -844.723342167     A.U. after   10 cycles
 SCF Done:  E(RB3LYP) =  -844.723342357     A.U. after   11 cycles
 SCF Done:  E(RB3LYP) =  -844.723342425     A.U. after   11 cycles
 SCF Done:  E(RB3LYP) =  -844.723342528     A.U. after   10 cycles
 SCF Done:  E(RB3LYP) =  -844.723342911     A.U. after   11 cycles
 SCF Done:  E(RB3LYP) =  -844.723343095     A.U. after   11 cycles
 SCF Done:  E(RB3LYP) =  -844.723343175     A.U. after   11 cycles
 SCF Done:  E(RB3LYP) =  -844.723343238     A.U. after   10 cycles
 Optimization completed.
    -- Stationary point found.
 Normal termination of Gaussian 16 at Mon Sep 18 06:54:32 2023.

 ---------------------------------------------------------------------
 #N Geom=AllCheck Guess=TCheck SCRF=Check GenChk RB3LYP/6-31+G(d) Freq
 ---------------------------------------------------------------------

 Structure from the checkpoint file:  "molecule_51.chk"
 -------------------
 Title Card Required
 -------------------
 Charge =  0 Multiplicity = 1

                         Standard orientation:
 ---------------------------------------------------------------------
 Center     Atomic      Atomic             Coordinates (Angstroms)
 Number     Number       Type             X           Y           Z
 ---------------------------------------------------------------------
      1          6           0       -5.489909    0.991495   -0.000745
      2          6           0       -3.320938   -0.131911    0.000026
      3          6           0       -3.994922   -1.376116    0.000876
      4          6           0       -5.379933   -1.434146    0.000921
      5          6           0       -6.139196   -0.251637    0.000120
      6          1           0       -6.052133    1.918332   -0.001387
      7          1           0       -3.414191   -2.293754    0.001500
      8          1           0       -5.902285   -2.386043    0.001562
      9          6           0       -1.901887   -0.072315   -0.000022
     10          6           0       -0.679729   -0.026028   -0.000056
     11          6           0        0.679726    0.025771   -0.000015
     12          6           0        1.901885    0.072075   -0.000004
     13          6           0        3.320932    0.131786    0.000045
     14          6           0        4.095633   -1.043470   -0.000729
     15          6           0        5.489982   -0.991463   -0.000675
     16          1           0        3.596031   -2.007802   -0.001381
     17          6           0        5.379830    1.434170    0.000922
     18          6           0        6.139180    0.251723    0.000156
     19          1           0        6.052280   -1.918254   -0.001284
     20          1           0        5.902104    2.386109    0.001546
     21          6           0       -4.095551    1.043398   -0.000789
     22          1           0       -3.595883    2.007697   -0.001465
     23          6           0        3.994819    1.376036    0.000873
     24          1           0        3.414025    2.293634    0.001471
     25          8           0        7.492662    0.419687    0.000307
     26          6           0        8.325272   -0.734746   -0.000574
     27          1           0        9.350164   -0.359940   -0.000366
     28          1           0        8.159343   -1.346528    0.896263
     29          1           0        8.159232   -1.345237   -0.898270
     30          8           0       -7.492688   -0.419502    0.000232
     31          6           0       -8.325199    0.735004   -0.000445
     32          1           0       -9.350124    0.360288   -0.000121
     33          1           0       -8.159089    1.346699    0.896419
     34          1           0       -8.159229    1.345553   -0.898113
 ---------------------------------------------------------------------

 SCF Done:  E(RB3LYP) =  -844.723343238     A.U. after    1 cycles

 The electronic state is 1-A.
 Alpha  occ. eigenvalues --  -19.19781 -19.19781 -10.26503 -10.26503 -10.25316
 Alpha  occ. eigenvalues --  -10.25316 -10.22008 -10.22007 -10.20939 -10.20939
 Alpha  occ. eigenvalues --  -10.20763 -10.20763 -10.20500 -10.20452 -10.20452
 Alpha  occ. eigenvalues --  -10.20444 -10.20198 -10.20186 -10.19978 -10.19978
 Alpha  occ. eigenvalues --   -1.08066  -1.08065  -0.87034  -0.87000  -0.80409
 Alpha  occ. eigenvalues --   -0.79037  -0.76937  -0.76384  -0.76117  -0.73577
 Alpha  occ. eigenvalues --   -0.71658  -0.69939  -0.63719  -0.62633  -0.62329
 Alpha  occ. eigenvalues --   -0.61270  -0.58466  -0.55208  -0.54820  -0.52555
 Alpha  occ. eigenvalues --   -0.51516  -0.49717  -0.49688  -0.48160  -0.48160
 Alpha  occ. eigenvalues --   -0.45965  -0.45942  -0.43769  -0.43755  -0.43028
 Alpha  occ. eigenvalues --   -0.42985  -0.40272  -0.40094  -0.39727  -0.39524
 Alpha  occ. eigenvalues --   -0.37725  -0.37600  -0.36334  -0.34914  -0.34386
 Alpha  occ. eigenvalues --   -0.34155  -0.33390  -0.32226  -0.27892  -0.26715
 Alpha  occ. eigenvalues --   -0.26643  -0.24325  -0.23939  -0.19896
 Alpha virt. eigenvalues --   -0.05818  -0.02114  -0.02054  -0.01566  -0.00955
 Alpha virt. eigenvalues --   -0.00049   0.00048   0.01403   0.02064   0.02228
 Alpha virt. eigenvalues --    0.02270   0.03360   0.03694   0.03832   0.03932

 Mulliken charges:
               1
     1  C    0.855809
     2  C    0.172450
     3  C   -0.427057
     4  C   -0.079168
     5  C   -0.086140
     6  H    0.179723
     7  H    0.198272
     8  H    0.194614
     9  C   -1.219913
    10  C    1.135915
    11  C    1.135872
    12  C   -1.219874
    13  C    0.172373
    14  C   -1.042044
    15  C    0.855690
    16  H    0.197204
    17  C   -0.079171
    18  C   -0.086149
    19  H    0.179723
    20  H    0.194614
    21  C   -1.042258
    22  H    0.197204
    23  C   -0.427071
    24  H    0.198272
    25  O   -0.373069
    26  C   -0.328583
    27  H    0.210947
    28  H    0.205627
    29  H    0.205627
    30  O   -0.373067
    31  C   -0.328573
    32  H    0.210947
    33  H    0.205627
    34  H    0.205628
 Sum of Mulliken charges =   0.00000

 Dipole moment (field-independent basis, Debye):
    X=              0.0001    Y=              0.0002    Z=             -0.0016  Tot=              0.0017
 Quadrupole moment (field-independent basis, Debye-Ang):
   XX=            -63.8113   YY=           -106.4435   ZZ=           -123.3945
   XY=            -21.1807   XZ=             -0.0021   YZ=             -0.0002

  Exact polarizability: 601.414  -2.257 187.171  -0.001  -0.001 115.325
 Approx polarizability: 811.062  11.584 310.341  -0.001  -0.002 168.943

                      1                      2                      3
                      A                      A                      A
 Frequencies --      6.6848                20.1918                21.2267
 Red. masses --      3.3694                 5.7986                 6.2834
 Frc consts  --      0.0001                 0.0014                 0.0017
 IR Inten    --      1.4115                 1.0637                 0.7208

                      4                      5                      6
                      A                      A                      A
 Frequencies --     52.8697                65.1702                85.4963
 Red. masses --      4.5622                 5.8026                 3.6312
 Frc consts  --      0.0075                 0.0145                 0.0156
 IR Inten    --      0.0000                 0.0000                 3.5225

                      7                      8                      9
                      A                      A                      A
 Frequencies --    106.9778               148.4433               180.1022
 Red. masses --      4.0807                 5.3577                 5.9725
 Frc consts  --      0.0275                 0.0696                 0.1141
 IR Inten    --      0.0000                 6.5661                 0.0000

                     10                     11                     12
                      A                      A                      A
 Frequencies --    194.6363               212.3532               257.1639
 Red. masses --      6.3479                 2.9321                 1.2762
 Frc consts  --      0.1417                 0.0779                 0.0497
 IR Inten    --      1.0051                 0.0000                 0.0081

                     13                     14                     15
                      A                      A                      A
 Frequencies --    264.0210               275.5783               280.2981
 Red. masses --      3.8097                 3.8058                 1.3543
 Frc consts  --      0.1565                 0.1703                 0.0627
 IR Inten    --      0.0000                 3.8864                 0.0001

                     16                     17                     18
                      A                      A                      A
 Frequencies --    323.6828               390.1864               416.4125
 Red. masses --      3.6112                 7.6341                 4.9722
 Frc consts  --      0.2229                 0.6848                 0.5080
 IR Inten    --      3.1768                21.0044                 0.0000

                     19                     20                     21
                      A                      A                      A
 Frequencies --    420.7825               425.5570               444.2718
 Red. masses --      3.0473                 3.7099                 6.1218
 Frc consts  --      0.3179                 0.3958                 0.7119
 IR Inten    --      0.0010                 0.0000                 0.0000

                     22                     23                     24
                      A                      A                      A
 Frequencies --    494.4793               499.7640               502.3826
 Red. masses --      6.2359                 4.7196                 3.3933
 Frc consts  --      0.8983                 0.6945                 0.5046
 IR Inten    --     37.3545                 0.0005                18.6907

                     25                     26                     27
                      A                      A                      A
 Frequencies --    538.0078               538.5423               600.4220
 Red. masses --      2.4491                 5.1422                 4.0066
 Frc consts  --      0.4177                 0.8787                 0.8510
 IR Inten    --      0.0077                13.8278                15.1407

                     28                     29                     30
                      A                      A                      A
 Frequencies --    600.7519               642.7470               653.9747
 Red. masses --      5.8399                 7.8288                 7.1487
 Frc consts  --      1.2418                 1.9056                 1.8013
 IR Inten    --      0.0003                 0.0000                 1.8874

                     31                     32                     33
                      A                      A                      A
 Frequencies --    684.6736               702.6855               722.2936
 Red. masses --     10.1721                 5.6389                 3.9521
 Frc consts  --      2.8095                 1.6405                 1.2148
 IR Inten    --      0.0000                41.2320                 0.0000

                     34                     35                     36
                      A                      A                      A
 Frequencies --    726.4127               807.6808               818.5293
 Red. masses --      4.1359                 5.7624                 1.3208
 Frc consts  --      1.2858                 2.2148                 0.5214
 IR Inten    --      0.5823                 0.0000                 0.0000

                     37                     38                     39
                      A                      A                      A
 Frequencies --    819.6668               833.4621               838.0676
 Red. masses --      1.2776                 6.1650                 1.9389
 Frc consts  --      0.5058                 2.5232                 0.8024
 IR Inten    --     12.7979                 4.7520                 0.0000

                     40                     41                     42
                      A                      A                      A
 Frequencies --    848.0047               869.0983               951.8431
 Red. masses --      1.6897                 4.8109                 1.3316
 Frc consts  --      0.7159                 2.1410                 0.7108
 IR Inten    --    117.1975                 0.0000                 0.3127

                     43                     44                     45
                      A                      A                      A
 Frequencies --    952.3463               970.8936               970.9240
 Red. masses --      1.3427                 1.3238                 1.3243
 Frc consts  --      0.7175                 0.7352                 0.7355
 IR Inten    --      0.0000                 0.0834                 0.0001

                     46                     47                     48
                      A                      A                      A
 Frequencies --    999.4752              1027.6429              1031.6523
 Red. masses --      8.3299                 2.8261                 2.6729
 Frc consts  --      4.9027                 1.7584                 1.6761
 IR Inten    --      0.0000                 0.3272                 0.0000

                     49                     50                     51
                      A                      A                      A
 Frequencies --   1064.4086              1067.8515              1147.8305
 Red. masses --      6.3933                 5.2045                 1.3587
 Frc consts  --      4.2677                 3.4967                 1.0547
 IR Inten    --    168.7390                 0.0000                20.6164

                     52                     53                     54
                      A                      A                      A
 Frequencies --   1147.8948              1180.5827              1180.5841
 Red. masses --      1.3581                 1.2698                 1.2698
 Frc consts  --      1.0544                 1.0427                 1.0427
 IR Inten    --      0.0003                 1.4451                 0.6040

                     55                     56                     57
                      A                      A                      A
 Frequencies --   1209.9951              1212.8665              1214.7592
 Red. masses --      1.2555                 1.2603                 1.4350
 Frc consts  --      1.0830                 1.0923                 1.2476
 IR Inten    --    186.9395                 0.0000                61.4154

                     58                     59                     60
                      A                      A                      A
 Frequencies --   1217.7544              1240.1169              1291.4016
 Red. masses --      1.2744                 3.1468                 4.4059
 Frc consts  --      1.1135                 2.8513                 4.3291
 IR Inten    --      0.0000                34.9294               855.0108

                     61                     62                     63
                      A                      A                      A
 Frequencies --   1293.6190              1331.8091              1332.6583
 Red. masses --      4.3236                 2.4738                 2.5894
 Frc consts  --      4.2630                 2.5852                 2.7095
 IR Inten    --      0.0001                 0.0000               156.8286

                     64                     65                     66
                      A                      A                      A
 Frequencies --   1344.4528              1344.7301              1393.2096
 Red. masses --      1.9195                 1.9377                 4.6685
 Frc consts  --      2.0443                 2.0644                 5.3390
 IR Inten    --     98.6647                 0.0019                 0.0000

                     67                     68                     69
                      A                      A                      A
 Frequencies --   1457.6924              1458.4598              1493.0824
 Red. masses --      2.9934                 3.0357                 1.1841
 Frc consts  --      3.7475                 3.8045                 1.5553
 IR Inten    --      7.4148                 0.0000                64.8291

                     70                     71                     72
                      A                      A                      A
 Frequencies --   1494.0377              1519.0249              1519.0277
 Red. masses --      1.1846                 1.0459                 1.0459
 Frc consts  --      1.5579                 1.4218                 1.4218
 IR Inten    --      0.0000                 0.0267                16.7000

                     73                     74                     75
                      A                      A                      A
 Frequencies --   1526.1233              1526.5967              1547.7804
 Red. masses --      1.0678                 1.0584                 2.3017
 Frc consts  --      1.4652                 1.4533                 3.2488
 IR Inten    --    148.6042                 0.0001               359.6844

                     76                     77                     78
                      A                      A                      A
 Frequencies --   1559.2724              1602.2117              1602.3465
 Red. masses --      2.7241                 6.3148                 6.2978
 Frc consts  --      3.9023                 9.5511                 9.5269
 IR Inten    --      0.0000                37.2812                 0.0005

                     79                     80                     81
                      A                      A                      A
 Frequencies --   1655.8883              1655.9353              2233.1546
 Red. masses --      5.4777                 5.5008                11.9986
 Frc consts  --      8.8493                 8.8871                35.2547
 IR Inten    --    339.8902                 0.0053                23.4611

                     82                     83                     84
                      A                      A                      A
 Frequencies --   2308.2794              3022.8022              3022.9768
 Red. masses --     11.9956                 1.0342                 1.0343
 Frc consts  --     37.6574                 5.5679                 5.5688
 IR Inten    --      0.0000               177.5026                 0.0000

                     85                     86                     87
                      A                      A                      A
 Frequencies --   3084.6365              3084.6449              3158.0002
 Red. masses --      1.1070                 1.1070                 1.0999
 Frc consts  --      6.2057                 6.2058                 6.4632
 IR Inten    --      0.0018                77.0072                56.0340

                     88                     89                     90
                      A                      A                      A
 Frequencies --   3158.0219              3199.4572              3199.4653
 Red. masses --      1.0999                 1.0882                 1.0882
 Frc consts  --      6.4632                 6.5630                 6.5631
 IR Inten    --      0.0118                17.9232                 0.4209

                     91                     92                     93
                      A                      A                      A
 Frequencies --   3200.9578              3200.9764              3215.8499
 Red. masses --      1.0893                 1.0893                 1.0951
 Frc consts  --      6.5758                 6.5759                 6.6726
 IR Inten    --      0.0097                 8.4468                18.3611

                     94                     95                     96
                      A                      A                      A
 Frequencies --   3215.8869              3225.1279              3225.2027
 Red. masses --      1.0951                 1.0926                 1.0926
 Frc consts  --      6.6727                 6.6958                 6.6962
 IR Inten    --      0.0144                32.3567                 0.0583

 - Thermochemistry -
 -------------------
 Temperature   298.150 Kelvin.  Pressure   1.00000 Atm.
 Atom     1 has atomic number  6 and mass  12.00000

 Molecular mass:   262.09938 amu.
 Principal axes and moments of inertia in atomic units:
                           1         2         3
     Eigenvalues --   761.96848********************
           X            0.99998  -0.00600   0.00000
           Y            0.00600   0.99998   0.00000
           Z            0.00000   0.00000   1.00000
 This molecule is an asymmetric top.
 Rotational symmetry number  1.
 Warning -- assumption of classical behavior for rotation
           may cause significant error
 Rotational temperatures (Kelvin)      0.11367     0.00320     0.00312
 Rotational constants (GHZ):           2.36852     0.06675     0.06497
 Zero-point vibrational energy     704767.8 (Joules/Mol)
                                  168.44355 (Kcal/Mol)
 Warning -- explicit consideration of  28 degrees of freedom as
           vibrations may cause significant error
 Vibrational temperatures:      9.62    29.05    30.54    76.07    93.77
          (Kelvin)            123.01   153.92   213.58   259.13   280.04
                              305.53   370.00   379.87   396.50   403.29
                              465.71   561.39   599.12   605.41   612.28
                              639.21   711.45   719.05   722.82   774.07
                              774.84   863.87   864.35   924.77   940.92
                              985.09  1011.01  1039.22  1045.15  1162.07
                             1177.68  1179.32  1199.17  1205.79  1220.09
                             1250.44  1369.49  1370.21  1396.90  1396.94
                             1438.02  1478.55  1484.32  1531.45  1536.40
                             1651.47  1651.56  1698.60  1698.60  1740.91
                             1745.04  1747.77  1752.08  1784.25  1858.04
                             1861.23  1916.18  1917.40  1934.37  1934.77
                             2004.52  2097.29  2098.40  2148.21  2149.59
                             2185.54  2185.54  2195.75  2196.43  2226.91
                             2243.45  2305.23  2305.42  2382.45  2382.52
                             3213.01  3321.10  4349.14  4349.39  4438.10
                             4438.12  4543.66  4543.69  4603.31  4603.32
                             4605.46  4605.49  4626.89  4626.94  4640.24
                             4640.35

 Zero-point correction=                           0.268432 (Hartree/Particle)
 Thermal correction to Energy=                    0.286340
 Thermal correction to Enthalpy=                  0.287284
 Thermal correction to Gibbs Free Energy=         0.218159
 Sum of electronic and zero-point Energies=           -844.454911
 Sum of electronic and thermal Energies=              -844.437003
 Sum of electronic and thermal Enthalpies=            -844.436059
 Sum of electronic and thermal Free Energies=         -844.505184

                     E (Thermal)             CV                S
                      KCal/Mol        Cal/Mol-Kelvin    Cal/Mol-Kelvin
 Total                  179.681             67.460            145.485
 Electronic               0.000              0.000              0.000
 Translational            0.889              2.981             42.590
 Rotational               0.889              2.981             34.703
 Vibrational            177.904             61.498             68.192
 Vibration     1          0.593              1.987              8.811
 Vibration     2          0.593              1.986              6.615
 Vibration     3          0.593              1.985              6.516
 Vibration     4          0.596              1.976              4.707
 Vibration     5          0.597              1.971              4.294
 Vibration     6          0.601              1.959              3.761
 Vibration     7          0.606              1.944              3.323
 Vibration     8          0.618              1.904              2.692
 Vibration     9          0.629              1.867              2.327
 Vibration    10          0.635              1.847              2.183
 Vibration    11          0.643              1.822              2.023
 Vibration    12          0.667              1.751              1.681
 Vibration    13          0.671              1.739              1.635
 Vibration    14          0.677              1.719              1.561
 Vibration    15          0.680              1.710              1.532
 Vibration    16          0.708              1.628              1.291
 Vibration    17          0.758              1.491              0.999
 Vibration    18          0.780              1.435              0.904
 Vibration    19          0.783              1.425              0.889
 Vibration    20          0.787              1.415              0.873
 Vibration    21          0.804              1.374              0.813
 Vibration    22          0.850              1.262              0.672
 Vibration    23          0.855              1.251              0.659
 Vibration    24          0.858              1.245              0.652
 Vibration    25          0.893              1.166              0.570
 Vibration    26          0.894              1.165              0.568
 Vibration    27          0.959              1.031              0.449
 Vibration    28          0.959              1.030              0.448

                           ! Non-Optimized Parameters !
 Normal termination of Gaussian 16 at Mon Sep 18 07:02:08 2023.
