 Gaussian 16, Revision B.01,
 Gaussian 16:  EM64L-G16RevB.01 20-Dec-2017

 ---------------------------------------------------------
 # opt freq b3lyp/6-31+g(d) empiricaldispersion=gd3 volume
 ---------------------------------------------------------

 -------------
 ML molecule80
 -------------
 Symbolic Z-matrix:
 Charge =  0 Multiplicity = 1

 SCF Done:  E(RB3LYP) =  -745.219327380     A.U. after   16 cycles
 SCF Done:  E(RB3LYP) =  -739.361148775     A.U. after   19 cycles
 SCF Done:  E(RB3LYP) =  -745.131527911     A.U. after   16 cycles
 SCF Done:  E(RB3LYP) =  -745.263082448     A.U. after   14 cycles
 SCF Done:  E(RB3LYP) =  -745.273066127     A.U. after   14 cycles
 SCF Done:  E(RB3LYP) =  -745.277973645     A.U. after   15 cycles
 SCF Done:  E(RB3LYP) =  -745.290573967     A.U. after   14 cycles
 SCF Done:  E(RB3LYP) =  -745.296607261     A.U. after   15 cycles
 SCF Done:  E(RB3LYP) =  -745.304039942     A.U. after   16 cycles
 SCF Done:  E(RB3LYP) =  -745.302113359     A.U. after   14 cycles
 SCF Done:  E(RB3LYP) =  -745.328770107     A.U. after   13 cycles
 SCF Done:  E(RB3LYP) =  -745.328579809     A.U. after   14 cycles
 SCF Done:  E(RB3LYP) =  -745.328760189     A.U. after   13 cycles
 SCF Done:  E(RB3LYP) =  -745.328784490     A.U. after   10 cycles
 SCF Done:  E(RB3LYP) =  -745.328778460     A.U. after   12 cycles
 SCF Done:  E(RB3LYP) =  -745.328785129     A.U. after   12 cycles
 SCF Done:  E(RB3LYP) =  -745.328786475     A.U. after   11 cycles
 SCF Done:  E(RB3LYP) =  -745.328786575     A.U. after   11 cycles
 SCF Done:  E(RB3LYP) =  -745.328786706     A.U. after    9 cycles
 Optimization completed.
    -- Stationary point found.
 Normal termination of Gaussian 16 at Mon Sep 18 10:30:58 2023.

 ---------------------------------------------------------------------
 #N Geom=AllCheck Guess=TCheck SCRF=Check GenChk RB3LYP/6-31+G(d) Freq
 ---------------------------------------------------------------------

 Structure from the checkpoint file:  "molecule_82.chk"
 -------------
 ML molecule80
 -------------
 Charge =  0 Multiplicity = 1

                         Standard orientation:
 ---------------------------------------------------------------------
 Center     Atomic      Atomic             Coordinates (Angstroms)
 Number     Number       Type             X           Y           Z
 ---------------------------------------------------------------------
      1          6           0        3.521270   -0.230834    0.259522
      2          6           0        2.798912    0.157652    1.400331
      3          6           0        1.549036    0.752836    1.269151
      4          6           0        1.014788    0.960190   -0.005206
      5          6           0        1.720381    0.583663   -1.141064
      6          6           0        2.980206   -0.014825   -1.015275
      7          1           0        3.239480   -0.013004    2.377705
      8          1           0        1.287790    0.760409   -2.121283
      9          1           0        3.519876   -0.299700   -1.910945
     10          8           0       -0.213208    1.609339   -0.142645
     11          6           0       -1.368390    0.875640   -0.090567
     12          6           0       -2.560054    1.608539   -0.194717
     13          6           0       -1.401497   -0.518140    0.050311
     14          6           0       -3.781974    0.951476   -0.158047
     15          6           0       -2.630468   -1.173082    0.086881
     16          1           0       -0.479249   -1.082195    0.129695
     17          6           0       -3.830181   -0.449606   -0.016422
     18          1           0       -4.705939    1.515877   -0.238110
     19          1           0       -2.662356   -2.252951    0.195685
     20          1           0        0.983053    1.060941    2.143188
     21          1           0       -2.503072    2.686986   -0.303068
     22          6           0       -5.090196   -1.129642    0.021666
     23          7           0       -6.114967   -1.682037    0.052211
     24          8           0        4.736745   -0.804744    0.499773
     25          6           0        5.527838   -1.216066   -0.609306
     26          1           0        6.439440   -1.637392   -0.182431
     27          1           0        5.013901   -1.983939   -1.203293
     28          1           0        5.785512   -0.364341   -1.253193
 ---------------------------------------------------------------------

 SCF Done:  E(RB3LYP) =  -745.328786706     A.U. after    1 cycles

 The electronic state is 1-A.
 Alpha  occ. eigenvalues --  -19.21489 -19.20338 -14.34093 -10.28425 -10.27308
 Alpha  occ. eigenvalues --  -10.26504 -10.25911 -10.24174 -10.23374 -10.22916
 Alpha  occ. eigenvalues --  -10.22820 -10.21834 -10.21806 -10.21750 -10.21669
 Alpha  occ. eigenvalues --  -10.21662 -10.21268  -1.10268  -1.08660  -0.91162
 Alpha  occ. eigenvalues --   -0.88676  -0.87342  -0.79829  -0.78059  -0.77773
 Alpha  occ. eigenvalues --   -0.76583  -0.71881  -0.66466  -0.64694  -0.64201
 Alpha  occ. eigenvalues --   -0.60838  -0.57375  -0.56722  -0.54853  -0.51635
 Alpha  occ. eigenvalues --   -0.51038  -0.48784  -0.47514  -0.47260  -0.45796
 Alpha  occ. eigenvalues --   -0.45374  -0.44958  -0.44732  -0.42320  -0.42050
 Alpha  occ. eigenvalues --   -0.41553  -0.39736  -0.39644  -0.37720  -0.37264
 Alpha  occ. eigenvalues --   -0.36342  -0.35156  -0.33679  -0.33364  -0.33029
 Alpha  occ. eigenvalues --   -0.28522  -0.27859  -0.24887  -0.24045
 Alpha virt. eigenvalues --   -0.05196  -0.04200  -0.02854  -0.01833  -0.00903
 Alpha virt. eigenvalues --    0.00118   0.01252   0.01332   0.01882   0.02440
 Alpha virt. eigenvalues --    0.02577   0.03291   0.03498   0.03694   0.04499

 Mulliken charges:
               1
     1  C   -0.050848
     2  C   -0.194050
     3  C   -0.132250
     4  C    0.139611
     5  C   -0.450068
     6  C    0.458145
     7  H    0.199435
     8  H    0.195219
     9  H    0.184444
    10  O   -0.324177
    11  C   -0.283949
    12  C   -0.193297
    13  C    0.965196
    14  C   -0.394391
    15  C   -0.910189
    16  H    0.215626
    17  C    0.561709
    18  H    0.207547
    19  H    0.206795
    20  H    0.196769
    21  H    0.202651
    22  C   -0.175371
    23  N   -0.541130
    24  O   -0.386575
    25  C   -0.320436
    26  H    0.212642
    27  H    0.205179
    28  H    0.205762
 Sum of Mulliken charges =   0.00000

 Dipole moment (field-independent basis, Debye):
    X=              6.5533    Y=              0.9810    Z=             -1.1672  Tot=              6.7284
 Quadrupole moment (field-independent basis, Debye-Ang):
   XX=           -123.5600   YY=           -100.6905   ZZ=            -95.6796
   XY=            -20.7723   XZ=             -5.9566   YZ=              1.4450

  Exact polarizability: 270.669   0.448 145.656  -1.629  -1.503 128.251
 Approx polarizability: 358.140   2.030 244.710   1.511  -6.233 212.415

                      1                      2                      3
                      A                      A                      A
 Frequencies --     14.4249                38.7807                47.4213
 Red. masses --      4.4049                 4.9591                 4.0607
 Frc consts  --      0.0005                 0.0044                 0.0054
 IR Inten    --      0.3782                 0.3240                 0.2479

                      4                      5                      6
                      A                      A                      A
 Frequencies --     90.2458                93.9711               139.4496
 Red. masses --      3.7590                 8.5868                 7.5796
 Frc consts  --      0.0180                 0.0447                 0.0868
 IR Inten    --      4.0524                 4.2890                 3.0962

                      7                      8                      9
                      A                      A                      A
 Frequencies --    176.6002               226.7678               257.1091
 Red. masses --      4.7113                 4.4025                 4.7398
 Frc consts  --      0.0866                 0.1334                 0.1846
 IR Inten    --      3.3468                 2.3467                 1.7052

                     10                     11                     12
                      A                      A                      A
 Frequencies --    269.3631               287.3636               357.6741
 Red. masses --      1.2480                 5.5825                 5.2189
 Frc consts  --      0.0534                 0.2716                 0.3934
 IR Inten    --      0.3148                 1.1994                 1.7229

                     13                     14                     15
                      A                      A                      A
 Frequencies --    394.8611               420.0406               434.1774
 Red. masses --      5.8217                 3.0728                 3.1137
 Frc consts  --      0.5348                 0.3194                 0.3458
 IR Inten    --      2.3776                 0.0805                 0.0143

                     16                     17                     18
                      A                      A                      A
 Frequencies --    446.9076               478.4789               485.8829
 Red. masses --      7.0272                 5.0598                 4.5857
 Frc consts  --      0.8269                 0.6825                 0.6379
 IR Inten    --      1.8962                 0.3583                 3.6590

                     19                     20                     21
                      A                      A                      A
 Frequencies --    529.4562               556.2396               559.7864
 Red. masses --      3.3624                 6.7979                 3.2774
 Frc consts  --      0.5553                 1.2392                 0.6051
 IR Inten    --     14.4965                 1.7612                19.2273

                     22                     23                     24
                      A                      A                      A
 Frequencies --    587.3198               648.5353               652.8761
 Red. masses --      3.8133                 6.9248                 6.9634
 Frc consts  --      0.7750                 1.7160                 1.7488
 IR Inten    --      9.0223                 0.8932                 3.4459

                     25                     26                     27
                      A                      A                      A
 Frequencies --    688.5798               717.7028               734.8926
 Red. masses --      5.0350                 4.2265                 4.5755
 Frc consts  --      1.4066                 1.2827                 1.4559
 IR Inten    --      2.0554                 0.4483                 1.3040

                     28                     29                     30
                      A                      A                      A
 Frequencies --    769.3252               815.9743               830.2609
 Red. masses --      5.3893                 1.2926                 3.8356
 Frc consts  --      1.8793                 0.5071                 1.5578
 IR Inten    --     23.2290                 4.0438                 6.8640

                     31                     32                     33
                      A                      A                      A
 Frequencies --    832.6727               849.0311               860.6362
 Red. masses --      1.2670                 1.6437                 2.0731
 Frc consts  --      0.5176                 0.6981                 0.9047
 IR Inten    --      0.2508                55.7705                54.3655

                     34                     35                     36
                      A                      A                      A
 Frequencies --    890.6853               943.9479               964.2111
 Red. masses --      6.6589                 1.3559                 1.3173
 Frc consts  --      3.1125                 0.7118                 0.7216
 IR Inten    --     31.8894                 1.7232                 0.1862

                     37                     38                     39
                      A                      A                      A
 Frequencies --    965.9217               976.0906              1028.0771
 Red. masses --      1.3062                 1.3349                 2.6656
 Frc consts  --      0.7180                 0.7494                 1.6600
 IR Inten    --      0.5436                 0.0668                 5.1007

                     40                     41                     42
                      A                      A                      A
 Frequencies --   1030.5627              1065.7969              1136.7247
 Red. masses --      2.6888                 6.5070                 1.2880
 Frc consts  --      1.6825                 4.3549                 0.9805
 IR Inten    --      3.9943                62.7699                13.1564

                     43                     44                     45
                      A                      A                      A
 Frequencies --   1149.8042              1181.0518              1190.9932
 Red. masses --      1.3174                 1.2695                 1.2889
 Frc consts  --      1.0262                 1.0434                 1.0772
 IR Inten    --      7.0481                 1.0912                 7.0484

                     46                     47                     48
                      A                      A                      A
 Frequencies --   1204.7264              1215.1200              1228.2641
 Red. masses --      1.3365                 1.3842                 3.0382
 Frc consts  --      1.1429                 1.2042                 2.7005
 IR Inten    --     58.1387                13.5799                 7.5495

                     49                     50                     51
                      A                      A                      A
 Frequencies --   1229.0446              1273.9318              1299.8139
 Red. masses --      2.6328                 3.9659                 6.5876
 Frc consts  --      2.3432                 3.7921                 6.5575
 IR Inten    --    118.5342               740.9989                44.4803

                     52                     53                     54
                      A                      A                      A
 Frequencies --   1329.9420              1339.0149              1343.1461
 Red. masses --      1.3137                 1.9399                 2.7496
 Frc consts  --      1.3690                 2.0493                 2.9225
 IR Inten    --      1.3457                20.3734                11.9442

                     55                     56                     57
                      A                      A                      A
 Frequencies --   1353.3063              1456.9976              1459.9058
 Red. masses --      8.8375                 3.1274                 3.0986
 Frc consts  --      9.5361                 3.9115                 3.8910
 IR Inten    --     17.5506                 0.8077                 4.9022

                     58                     59                     60
                      A                      A                      A
 Frequencies --   1493.5828              1519.0619              1525.8386
 Red. masses --      1.1836                 1.0458                 1.0790
 Frc consts  --      1.5556                 1.4218                 1.4800
 IR Inten    --     30.5773                 8.5300                84.6325

                     61                     62                     63
                      A                      A                      A
 Frequencies --   1541.6605              1552.2642              1612.5353
 Red. masses --      2.2907                 2.4550                 6.7507
 Frc consts  --      3.2077                 3.4852                10.3423
 IR Inten    --    357.7318                90.5110                 7.9168

                     64                     65                     66
                      A                      A                      A
 Frequencies --   1633.5971              1652.7510              1665.2645
 Red. masses --      6.8693                 5.6237                 5.8670
 Frc consts  --     10.8007                 9.0508                 9.5859
 IR Inten    --      8.8529                92.5798                80.4425

                     67                     68                     69
                      A                      A                      A
 Frequencies --   2329.7866              3021.3516              3082.5396
 Red. masses --     12.6784                 1.0345                 1.1069
 Frc consts  --     40.5458                 5.5641                 6.1971
 IR Inten    --     91.5548                59.0440                38.7301

                     70                     71                     72
                      A                      A                      A
 Frequencies --   3158.9860              3203.4328              3205.8271
 Red. masses --      1.0997                 1.0885                 1.0899
 Frc consts  --      6.4657                 6.5814                 6.5996
 IR Inten    --     22.3141                10.3028                 3.9384

                     73                     74                     75
                      A                      A                      A
 Frequencies --   3206.4289              3207.8793              3218.6723
 Red. masses --      1.0890                 1.0899                 1.0951
 Frc consts  --      6.5964                 6.6082                 6.6844
 IR Inten    --      4.0376                 1.9309                 3.1543

                     76                     77                     78
                      A                      A                      A
 Frequencies --   3221.8437              3228.3948              3229.9577
 Red. masses --      1.0954                 1.0925                 1.0932
 Frc consts  --      6.6993                 6.7091                 6.7194
 IR Inten    --      3.3584                 5.9933                 1.4840

 - Thermochemistry -
 -------------------
 Temperature   298.150 Kelvin.  Pressure   1.00000 Atm.
 Atom     1 has atomic number  6 and mass  12.00000

 Molecular mass:   225.07898 amu.
 Principal axes and moments of inertia in atomic units:
                           1         2         3
     Eigenvalues --  1242.62339********************
           X            0.99992  -0.01167  -0.00516
           Y            0.01177   0.99975   0.01923
           Z            0.00493  -0.01929   0.99980
 This molecule is an asymmetric top.
 Rotational symmetry number  1.
 Warning -- assumption of classical behavior for rotation
           may cause significant error
 Rotational temperatures (Kelvin)      0.06970     0.00864     0.00822
 Rotational constants (GHZ):           1.45236     0.18002     0.17137
 Zero-point vibrational energy     568594.3 (Joules/Mol)
                                  135.89730 (Kcal/Mol)
 Warning -- explicit consideration of  22 degrees of freedom as
           vibrations may cause significant error
 Vibrational temperatures:     20.75    55.80    68.23   129.84   135.20
          (Kelvin)            200.64   254.09   326.27   369.92   387.55
                              413.45   514.61   568.12   604.34   624.68
                              643.00   688.42   699.08   761.77   800.30
                              805.41   845.02   933.10   939.34   990.71
                             1032.61  1057.35  1106.89  1174.01  1194.56
                             1198.03  1221.57  1238.26  1281.50  1358.13
                             1387.28  1389.75  1404.38  1479.17  1482.75
                             1533.44  1635.49  1654.31  1699.27  1713.57
                             1733.33  1748.29  1767.20  1768.32  1832.90
                             1870.14  1913.49  1926.54  1932.49  1947.11
                             2096.29  2100.48  2148.93  2185.59  2195.34
                             2218.11  2233.36  2320.08  2350.38  2377.94
                             2395.94  3352.04  4347.05  4435.09  4545.08
                             4609.03  4612.47  4613.34  4615.42  4630.95
                             4635.51  4644.94  4647.19

 Zero-point correction=                           0.216566 (Hartree/Particle)
 Thermal correction to Energy=                    0.230965
 Thermal correction to Enthalpy=                  0.231909
 Thermal correction to Gibbs Free Energy=         0.172838
 Sum of electronic and zero-point Energies=           -745.112221
 Sum of electronic and thermal Energies=              -745.097822
 Sum of electronic and thermal Enthalpies=            -745.096878
 Sum of electronic and thermal Free Energies=         -745.155949

                     E (Thermal)             CV                S
                      KCal/Mol        Cal/Mol-Kelvin    Cal/Mol-Kelvin
 Total                  144.932             55.213            124.325
 Electronic               0.000              0.000              0.000
 Translational            0.889              2.981             42.136
 Rotational               0.889              2.981             33.239
 Vibrational            143.155             49.251             48.950
 Vibration     1          0.593              1.986              7.283
 Vibration     2          0.594              1.981              5.320
 Vibration     3          0.595              1.979              4.922
 Vibration     4          0.602              1.956              3.655
 Vibration     5          0.603              1.953              3.576
 Vibration     6          0.615              1.914              2.811
 Vibration     7          0.628              1.871              2.364
 Vibration     8          0.650              1.800              1.904
 Vibration     9          0.667              1.751              1.681
 Vibration    10          0.674              1.730              1.600
 Vibration    11          0.685              1.697              1.489
 Vibration    12          0.733              1.559              1.132
 Vibration    13          0.762              1.481              0.982
 Vibration    14          0.783              1.427              0.892
 Vibration    15          0.795              1.396              0.845
 Vibration    16          0.806              1.368              0.805
 Vibration    17          0.835              1.298              0.714
 Vibration    18          0.842              1.281              0.694
 Vibration    19          0.884              1.185              0.588
 Vibration    20          0.912              1.126              0.531
 Vibration    21          0.915              1.118              0.524
 Vibration    22          0.944              1.059              0.472

                           ! Non-Optimized Parameters !
 Normal termination of Gaussian 16 at Mon Sep 18 10:36:07 2023.
