 Gaussian 16, Revision B.01,
 Gaussian 16:  EM64L-G16RevB.01 20-Dec-2017

 ----------------------------------------------------------------------
 # opt freq b3lyp/6-31+g(d) geom=connectivity empiricaldispersion=gd3 v
 olume
 ----------------------------------------------------------------------

 --------------
 ML molecule108
 --------------
 Symbolic Z-matrix:
 Charge =  0 Multiplicity = 1

 SCF Done:  E(RB3LYP) =  -782.277877626     A.U. after   16 cycles
 SCF Done:  E(RB3LYP) =  -782.308686757     A.U. after   17 cycles
 SCF Done:  E(RB3LYP) =  -782.336114260     A.U. after   17 cycles
 SCF Done:  E(RB3LYP) =  -782.355002595     A.U. after   16 cycles
 SCF Done:  E(RB3LYP) =  -782.354456939     A.U. after   17 cycles
 SCF Done:  E(RB3LYP) =  -782.363008538     A.U. after   20 cycles
 SCF Done:  E(RB3LYP) =  -782.363017579     A.U. after   17 cycles
 SCF Done:  E(RB3LYP) =  -782.373726381     A.U. after   17 cycles
 SCF Done:  E(RB3LYP) =  -782.374594743     A.U. after   17 cycles
 SCF Done:  E(RB3LYP) =  -782.373426365     A.U. after   17 cycles
 SCF Done:  E(RB3LYP) =  -782.387583846     A.U. after   12 cycles
 SCF Done:  E(RB3LYP) =  -782.387599421     A.U. after   14 cycles
 SCF Done:  E(RB3LYP) =  -782.387596308     A.U. after   13 cycles
 SCF Done:  E(RB3LYP) =  -782.387591514     A.U. after   14 cycles
 SCF Done:  E(RB3LYP) =  -782.387601387     A.U. after   14 cycles
 SCF Done:  E(RB3LYP) =  -782.387606006     A.U. after   12 cycles
 SCF Done:  E(RB3LYP) =  -782.387606574     A.U. after   11 cycles
 SCF Done:  E(RB3LYP) =  -782.387606728     A.U. after   10 cycles
 SCF Done:  E(RB3LYP) =  -782.387606727     A.U. after    9 cycles
 Optimization completed.
    -- Stationary point found.
 Normal termination of Gaussian 16 at Fri Sep 15 10:22:48 2023.

 ---------------------------------------------------------------------
 #N Geom=AllCheck Guess=TCheck SCRF=Check GenChk RB3LYP/6-31+G(d) Freq
 ---------------------------------------------------------------------

 Structure from the checkpoint file:  "molecule_108.chk"
 --------------
 ML molecule108
 --------------
 Charge =  0 Multiplicity = 1

                         Standard orientation:
 ---------------------------------------------------------------------
 Center     Atomic      Atomic             Coordinates (Angstroms)
 Number     Number       Type             X           Y           Z
 ---------------------------------------------------------------------
      1          6           0       -2.951762   -0.129607   -0.006486
      2          6           0       -1.869560   -0.850673   -0.513373
      3          6           0       -0.580286   -0.345226   -0.370696
      4          6           0       -0.389485    0.882682    0.280788
      5          6           0       -1.485109    1.601153    0.786665
      6          6           0       -2.769271    1.096283    0.643974
      7          1           0       -2.042410   -1.796397   -1.013337
      8          1           0       -1.304906    2.548057    1.285094
      9          1           0       -3.628158    1.634217    1.027211
     10          8           0        0.834108    1.460783    0.466370
     11          6           0        1.980932    0.800474    0.019637
     12          6           0        2.482757    1.094514   -1.245646
     13          6           0        2.620853   -0.094524    0.873769
     14          6           0        3.659032    0.461444   -1.655704
     15          6           0        3.802370   -0.729610    0.466487
     16          1           0        2.191052   -0.288382    1.853036
     17          6           0        4.308714   -0.441919   -0.810257
     18          1           0        4.068688    0.673403   -2.639706
     19          1           0        0.267681   -0.895863   -0.760988
     20          1           0        1.958052    1.799296   -1.883153
     21          7           0       -4.305439   -0.666482   -0.158514
     22          8           0       -5.243582   -0.006862    0.298757
     23          8           0       -4.437564   -1.750067   -0.735532
     24          1           0        5.222369   -0.928333   -1.143884
     25          6           0        4.527100   -1.672731    1.398904
     26          1           0        5.233372   -1.123833    2.036047
     27          1           0        3.830115   -2.198634    2.060537
     28          1           0        5.100815   -2.422556    0.843608
 ---------------------------------------------------------------------

 SCF Done:  E(RB3LYP) =  -782.387606727     A.U. after    2 cycles

 The electronic state is 1-A.
 Alpha  occ. eigenvalues --  -19.22172 -19.18967 -19.18956 -14.57790 -10.29218
 Alpha  occ. eigenvalues --  -10.27357 -10.25787 -10.23230 -10.23114 -10.22723
 Alpha  occ. eigenvalues --  -10.22360 -10.22202 -10.21875 -10.21544 -10.21465
 Alpha  occ. eigenvalues --  -10.21217 -10.20447  -1.22881  -1.11037  -1.05588
 Alpha  occ. eigenvalues --   -0.90057  -0.88153  -0.81930  -0.79521  -0.78693
 Alpha  occ. eigenvalues --   -0.76923  -0.71401  -0.70574  -0.65796  -0.63488
 Alpha  occ. eigenvalues --   -0.62251  -0.59590  -0.57055  -0.55500  -0.53562
 Alpha  occ. eigenvalues --   -0.52641  -0.52141  -0.50307  -0.49937  -0.47890
 Alpha  occ. eigenvalues --   -0.46411  -0.45901  -0.44264  -0.44055  -0.43558
 Alpha  occ. eigenvalues --   -0.43357  -0.42450  -0.40712  -0.38781  -0.38097
 Alpha  occ. eigenvalues --   -0.37662  -0.36148  -0.35596  -0.31698  -0.31632
 Alpha  occ. eigenvalues --   -0.29733  -0.28897  -0.27453  -0.26593  -0.26044
 Alpha virt. eigenvalues --   -0.09734  -0.04500  -0.03235  -0.02906  -0.00834
 Alpha virt. eigenvalues --   -0.00541   0.00651   0.00957   0.01682   0.02249
 Alpha virt. eigenvalues --    0.02975   0.03124   0.03812   0.04057   0.05291

 Mulliken charges:
               1
     1  C   -0.096655
     2  C   -0.645735
     3  C    0.686428
     4  C    0.176646
     5  C   -0.791727
     6  C    0.061737
     7  H    0.231542
     8  H    0.205782
     9  H    0.231014
    10  O   -0.317233
    11  C    0.138643
    12  C   -0.083801
    13  C   -0.215460
    14  C   -0.022330
    15  C    0.584402
    16  H    0.187563
    17  C   -0.518161
    18  H    0.187971
    19  H    0.218824
    20  H    0.195764
    21  N   -0.342683
    22  O   -0.032249
    23  O   -0.037159
    24  H    0.180663
    25  C   -0.842454
    26  H    0.232877
    27  H    0.213808
    28  H    0.211984
 Sum of Mulliken charges =   0.00000

 Dipole moment (field-independent basis, Debye):
    X=              6.6480    Y=              0.6439    Z=              0.2079  Tot=              6.6823
 Quadrupole moment (field-independent basis, Debye-Ang):
   XX=           -120.4418   YY=            -99.0534   ZZ=            -94.5530
   XY=            -13.2019   XZ=             -3.8021   YZ=             -2.1465

  Exact polarizability: 250.060  -7.704 147.600  -7.987   5.211 135.388
 Approx polarizability: 338.276 -16.282 260.894 -19.702  25.612 226.654

                      1                      2                      3
                      A                      A                      A
 Frequencies --     10.4590                34.1394                36.3368
 Red. masses --      4.6871                 1.0158                 5.8167
 Frc consts  --      0.0003                 0.0007                 0.0045
 IR Inten    --      0.1335                 0.2727                 0.0022

                      4                      5                      6
                      A                      A                      A
 Frequencies --     58.6547                68.7224                99.2167
 Red. masses --      5.8986                 5.6403                 7.8561
 Frc consts  --      0.0120                 0.0157                 0.0456
 IR Inten    --      0.4058                 0.0046                 3.3416

                      7                      8                      9
                      A                      A                      A
 Frequencies --    193.5260               212.5440               238.6622
 Red. masses --      6.1299                 3.5484                 5.2533
 Frc consts  --      0.1353                 0.0944                 0.1763
 IR Inten    --      2.9702                 1.0282                 0.1172

                     10                     11                     12
                      A                      A                      A
 Frequencies --    273.2720               314.7575               324.7642
 Red. masses --      5.2567                 5.0476                 5.1383
 Frc consts  --      0.2313                 0.2946                 0.3193
 IR Inten    --      1.3937                 0.5867                 0.3293

                     13                     14                     15
                      A                      A                      A
 Frequencies --    408.5853               427.2202               450.4782
 Red. masses --      6.8124                 3.1064                 3.6460
 Frc consts  --      0.6701                 0.3340                 0.4359
 IR Inten    --      0.1041                 0.0118                 4.3777

                     16                     17                     18
                      A                      A                      A
 Frequencies --    456.9489               501.4382               517.3024
 Red. masses --      3.2500                 3.0006                 6.1391
 Frc consts  --      0.3998                 0.4445                 0.9679
 IR Inten    --      5.6774                 5.5547                 2.8057

                     19                     20                     21
                      A                      A                      A
 Frequencies --    530.2017               548.5393               623.1071
 Red. masses --      5.8765                 5.1738                 6.0438
 Frc consts  --      0.9733                 0.9172                 1.3826
 IR Inten    --      1.7607                 0.6538                 1.5040

                     22                     23                     24
                      A                      A                      A
 Frequencies --    644.7178               662.4692               687.7690
 Red. masses --      7.3213                 5.6896                 3.9069
 Frc consts  --      1.7930                 1.4712                 1.0889
 IR Inten    --      2.1360                13.6593                 4.8220

                     25                     26                     27
                      A                      A                      A
 Frequencies --    704.1675               746.7581               751.7039
 Red. masses --      2.3948                 4.0284                 6.7304
 Frc consts  --      0.6996                 1.3236                 2.2407
 IR Inten    --     10.2771                10.6021                23.6385

                     28                     29                     30
                      A                      A                      A
 Frequencies --    804.6446               826.3177               829.4536
 Red. masses --      1.8015                 4.4447                 1.2702
 Frc consts  --      0.6872                 1.7881                 0.5149
 IR Inten    --     31.2510                 1.2793                 0.3161

                     31                     32                     33
                      A                      A                      A
 Frequencies --    860.9788               871.0241               890.5266
 Red. masses --      1.7292                 7.3528                 1.3367
 Frc consts  --      0.7552                 3.2867                 0.6246
 IR Inten    --     43.8252                38.8661                 8.3099

                     34                     35                     36
                      A                      A                      A
 Frequencies --    922.6333               959.9071               979.6115
 Red. masses --      1.5083                 3.0867                 1.2941
 Frc consts  --      0.7565                 1.6757                 0.7317
 IR Inten    --      9.3963                46.6990                 1.9479

                     37                     38                     39
                      A                      A                      A
 Frequencies --    985.8694               987.4455              1017.0120
 Red. masses --      1.3050                 1.3268                 6.1536
 Frc consts  --      0.7473                 0.7622                 3.7500
 IR Inten    --      0.1577                 0.0381                 8.3367

                     40                     41                     42
                      A                      A                      A
 Frequencies --   1026.8769              1034.3624              1071.9235
 Red. masses --      2.8059                 1.5257                 1.5246
 Frc consts  --      1.7433                 0.9618                 1.0321
 IR Inten    --      0.3068                 7.3645                 7.8385

                     43                     44                     45
                      A                      A                      A
 Frequencies --   1118.1397              1134.5361              1151.2140
 Red. masses --      1.5269                 3.2734                 1.2513
 Frc consts  --      1.1247                 2.4825                 0.9771
 IR Inten    --      7.3795               121.1272                11.7889

                     46                     47                     48
                      A                      A                      A
 Frequencies --   1172.8601              1203.0672              1208.5422
 Red. masses --      1.7957                 1.1683                 1.2844
 Frc consts  --      1.4554                 0.9963                 1.1053
 IR Inten    --     35.1650                 0.8157               102.2185

                     49                     50                     51
                      A                      A                      A
 Frequencies --   1263.0297              1290.9253              1322.3052
 Red. masses --      3.7312                 4.9328                 1.7265
 Frc consts  --      3.5070                 4.8433                 1.7786
 IR Inten    --     15.7501               674.3290                 4.1643

                     52                     53                     54
                      A                      A                      A
 Frequencies --   1333.3026              1355.9945              1372.5711
 Red. masses --      1.3326                 3.1828                10.1499
 Frc consts  --      1.3958                 3.4481                11.2664
 IR Inten    --      2.5265                 0.5362               354.9124

                     55                     56                     57
                      A                      A                      A
 Frequencies --   1378.6761              1439.9210              1464.4626
 Red. masses --     10.3650                 1.2294                 3.2782
 Frc consts  --     11.6077                 1.5019                 4.1424
 IR Inten    --    117.2257                 0.9203                 1.8029

                     58                     59                     60
                      A                      A                      A
 Frequencies --   1469.8424              1513.3949              1516.2429
 Red. masses --      2.3906                 1.0664                 1.2467
 Frc consts  --      3.0430                 1.4390                 1.6887
 IR Inten    --     21.0432                 8.5974                15.8892

                     61                     62                     63
                      A                      A                      A
 Frequencies --   1529.9723              1534.6873              1581.9571
 Red. masses --      2.1940                 2.3031                12.0832
 Frc consts  --      3.0259                 3.1960                17.8165
 IR Inten    --    144.8301                60.6330               193.7615

                     64                     65                     66
                      A                      A                      A
 Frequencies --   1631.4430              1645.4676              1652.8556
 Red. masses --      5.5402                 6.7976                 6.7761
 Frc consts  --      8.6880                10.8438                10.9069
 IR Inten    --    165.6934                88.2128               108.3436

                     67                     68                     69
                      A                      A                      A
 Frequencies --   1660.2681              3038.8034              3095.8055
 Red. masses --      6.0206                 1.0396                 1.0966
 Frc consts  --      9.7779                 5.6563                 6.1922
 IR Inten    --     20.5004                28.7158                15.1207

                     70                     71                     72
                      A                      A                      A
 Frequencies --   3120.3394              3180.3961              3195.0202
 Red. masses --      1.1029                 1.0878                 1.0913
 Frc consts  --      6.3268                 6.4825                 6.5633
 IR Inten    --     15.7495                 7.0103                10.7062

                     73                     74                     75
                      A                      A                      A
 Frequencies --   3198.2387              3216.2226              3217.8033
 Red. masses --      1.0921                 1.0951                 1.0906
 Frc consts  --      6.5816                 6.6743                 6.6532
 IR Inten    --     14.7248                 4.7396                 2.0537

                     76                     77                     78
                      A                      A                      A
 Frequencies --   3227.7903              3244.2156              3245.5205
 Red. masses --      1.0894                 1.0936                 1.0936
 Frc consts  --      6.6870                 6.7818                 6.7867
 IR Inten    --      1.3013                 1.2194                 2.1208

 - Thermochemistry -
 -------------------
 Temperature   298.150 Kelvin.  Pressure   1.00000 Atm.
 Atom     1 has atomic number  6 and mass  12.00000

 Molecular mass:   229.07389 amu.
 Principal axes and moments of inertia in atomic units:
                           1         2         3
     Eigenvalues --  1451.156909274.846139617.37122
           X            0.99989  -0.01435   0.00223
           Y            0.01446   0.99789  -0.06322
           Z           -0.00132   0.06325   0.99800
 This molecule is an asymmetric top.
 Rotational symmetry number  1.
 Warning -- assumption of classical behavior for rotation
           may cause significant error
 Rotational temperatures (Kelvin)      0.05969     0.00934     0.00901
 Rotational constants (GHZ):           1.24366     0.19458     0.18765
 Zero-point vibrational energy     565360.4 (Joules/Mol)
                                  135.12439 (Kcal/Mol)
 Warning -- explicit consideration of  20 degrees of freedom as
           vibrations may cause significant error
 Vibrational temperatures:     15.05    49.12    52.28    84.39    98.88
          (Kelvin)            142.75   278.44   305.80   343.38   393.18
                              452.87   467.26   587.86   614.67   648.14
                              657.45   721.46   744.28   762.84   789.23
                              896.51   927.61   953.15   989.55  1013.14
                             1074.42  1081.53  1157.70  1188.89  1193.40
                             1238.76  1253.21  1281.27  1327.46  1381.09
                             1409.44  1418.45  1420.71  1463.25  1477.45
                             1488.22  1542.26  1608.75  1632.34  1656.34
                             1687.48  1730.95  1738.82  1817.22  1857.35
                             1902.50  1918.33  1950.97  1974.82  1983.61
                             2071.73  2107.04  2114.78  2177.44  2181.54
                             2201.29  2208.07  2276.08  2347.28  2367.46
                             2378.09  2388.76  4372.16  4454.17  4489.47
                             4575.88  4596.92  4601.55  4627.43  4629.70
                             4644.07  4667.70  4669.58

 Zero-point correction=                           0.215334 (Hartree/Particle)
 Thermal correction to Energy=                    0.229767
 Thermal correction to Enthalpy=                  0.230711
 Thermal correction to Gibbs Free Energy=         0.170241
 Sum of electronic and zero-point Energies=           -782.172272
 Sum of electronic and thermal Energies=              -782.157840
 Sum of electronic and thermal Enthalpies=            -782.156896
 Sum of electronic and thermal Free Energies=         -782.217365

                     E (Thermal)             CV                S
                      KCal/Mol        Cal/Mol-Kelvin    Cal/Mol-Kelvin
 Total                  144.181             54.569            127.269
 Electronic               0.000              0.000              0.000
 Translational            0.889              2.981             42.189
 Rotational               0.889              2.981             33.226
 Vibrational            142.404             48.607             51.855
 Vibration     1          0.593              1.987              7.922
 Vibration     2          0.594              1.983              5.573
 Vibration     3          0.594              1.982              5.449
 Vibration     4          0.596              1.974              4.502
 Vibration     5          0.598              1.969              4.190
 Vibration     6          0.604              1.950              3.470
 Vibration     7          0.635              1.849              2.194
 Vibration     8          0.644              1.822              2.022
 Vibration     9          0.657              1.781              1.813
 Vibration    10          0.676              1.723              1.575
 Vibration    11          0.702              1.645              1.337
 Vibration    12          0.709              1.626              1.286
 Vibration    13          0.773              1.452              0.932
 Vibration    14          0.789              1.411              0.868
 Vibration    15          0.809              1.360              0.794
 Vibration    16          0.815              1.346              0.775
 Vibration    17          0.857              1.247              0.655
 Vibration    18          0.872              1.212              0.616
 Vibration    19          0.885              1.183              0.587
 Vibration    20          0.904              1.143              0.547

                           ! Non-Optimized Parameters !
 Normal termination of Gaussian 16 at Fri Sep 15 10:28:06 2023.
