 Gaussian 16, Revision B.01,
 Gaussian 16:  EM64L-G16RevB.01 20-Dec-2017

 ----------------------------------------------------------------------
 # opt freq b3lyp/6-31+g(d) geom=connectivity empiricaldispersion=gd3 v
 olume
 ----------------------------------------------------------------------

 -------------------
 Title Card Required
 -------------------
 Symbolic Z-matrix:
 Charge =  0 Multiplicity = 1

 SCF Done:  E(RB3LYP) =  -769.513126969     A.U. after   15 cycles
 SCF Done:  E(RB3LYP) =  -769.513127057     A.U. after   11 cycles
 SCF Done:  E(RB3LYP) =  -769.513126949     A.U. after   10 cycles
 SCF Done:  E(RB3LYP) =  -769.513127217     A.U. after   10 cycles
 SCF Done:  E(RB3LYP) =  -769.513127214     A.U. after    9 cycles
 Optimization completed.
    -- Stationary point found.
 Normal termination of Gaussian 16 at Mon Sep 18 06:26:56 2023.

 ---------------------------------------------------------------------
 #N Geom=AllCheck Guess=TCheck SCRF=Check GenChk RB3LYP/6-31+G(d) Freq
 ---------------------------------------------------------------------

 Structure from the checkpoint file:  "molecule_40.chk"
 -------------------
 Title Card Required
 -------------------
 Charge =  0 Multiplicity = 1

                         Standard orientation:
 ---------------------------------------------------------------------
 Center     Atomic      Atomic             Coordinates (Angstroms)
 Number     Number       Type             X           Y           Z
 ---------------------------------------------------------------------
      1          6           0        5.913744   -1.259764   -0.004310
      2          6           0        3.824592   -0.012483   -0.003863
      3          6           0        4.572377    1.184027   -0.010826
      4          6           0        5.964203    1.146012   -0.013584
      5          6           0        6.661651   -0.072184   -0.007563
      6          1           0        6.430894   -2.217072   -0.005590
      7          1           0        4.050122    2.136365   -0.017542
      8          1           0        6.521289    2.080647   -0.022208
      9          6           0        2.403525    0.017448   -0.003210
     10          6           0        1.181040    0.043627   -0.002396
     11          6           0       -0.179072    0.072132   -0.001366
     12          6           0       -1.401781    0.096739   -0.000333
     13          6           0       -2.821535    0.131823    0.000350
     14          6           0       -3.516543    1.364431    0.005113
     15          6           0       -4.902223    1.398561    0.005902
     16          1           0       -2.951557    2.291820    0.008198
     17          6           0       -4.970392   -1.028990   -0.002792
     18          6           0       -5.640915    0.202932    0.001967
     19          1           0       -5.441040    2.341201    0.009556
     20          1           0       -5.516655   -1.965297   -0.005898
     21          6           0        4.521299   -1.239150   -0.001465
     22          1           0        3.959566   -2.168782   -0.000884
     23          6           0       -3.575466   -1.056810   -0.003581
     24          1           0       -3.059136   -2.012276   -0.007269
     25          6           0        8.171457   -0.102662    0.025450
     26          1           0        8.602100    0.758904   -0.497137
     27          1           0        8.541684   -0.075937    1.059613
     28          1           0        8.565406   -1.013447   -0.439070
     29          8           0       -6.996654    0.347384    0.003163
     30          6           0       -7.809669   -0.821193   -0.000591
     31          1           0       -8.840697   -0.463709    0.001229
     32          1           0       -7.633709   -1.426020   -0.900169
     33          1           0       -7.632766   -1.432438    0.894453
 ---------------------------------------------------------------------

 SCF Done:  E(RB3LYP) =  -769.513127214     A.U. after    2 cycles

 The electronic state is 1-A.
 Alpha  occ. eigenvalues --  -19.19912 -10.26660 -10.25419 -10.22280 -10.22152
 Alpha  occ. eigenvalues --  -10.21172 -10.21097 -10.20913 -10.20735 -10.20648
 Alpha  occ. eigenvalues --  -10.20587 -10.20470 -10.20469 -10.20410 -10.20362
 Alpha  occ. eigenvalues --  -10.20110 -10.19991 -10.19986 -10.19375  -1.08202
 Alpha  occ. eigenvalues --   -0.87178  -0.87145  -0.80872  -0.79607  -0.77300
 Alpha  occ. eigenvalues --   -0.76435  -0.75608  -0.73829  -0.71440  -0.69393
 Alpha  occ. eigenvalues --   -0.63471  -0.62500  -0.61821  -0.60897  -0.58366
 Alpha  occ. eigenvalues --   -0.55186  -0.53637  -0.52005  -0.49840  -0.48276
 Alpha  occ. eigenvalues --   -0.47599  -0.47139  -0.46087  -0.43900  -0.43517
 Alpha  occ. eigenvalues --   -0.43134  -0.43003  -0.42871  -0.40325  -0.39780
 Alpha  occ. eigenvalues --   -0.39762  -0.38094  -0.37799  -0.36275  -0.35845
 Alpha  occ. eigenvalues --   -0.35384  -0.34382  -0.33548  -0.33107  -0.28837
 Alpha  occ. eigenvalues --   -0.26841  -0.26293  -0.24780  -0.24484  -0.20388
 Alpha virt. eigenvalues --   -0.06234  -0.02229  -0.01917  -0.01707  -0.01472
 Alpha virt. eigenvalues --   -0.00089   0.00553   0.01453   0.02040   0.02333
 Alpha virt. eigenvalues --    0.02396   0.03442   0.03548   0.03929   0.04412

 Mulliken charges:
               1
     1  C   -0.157628
     2  C    0.006223
     3  C   -0.242968
     4  C   -0.145010
     5  C    0.358649
     6  H    0.176939
     7  H    0.195172
     8  H    0.177303
     9  C   -1.270320
    10  C    1.125779
    11  C    1.128746
    12  C   -1.253911
    13  C    0.250632
    14  C   -0.419249
    15  C   -0.087158
    16  H    0.199070
    17  C    0.953026
    18  C   -0.082362
    19  H    0.195186
    20  H    0.180109
    21  C   -0.331815
    22  H    0.194974
    23  C   -1.196102
    24  H    0.197873
    25  C   -0.728808
    26  H    0.210543
    27  H    0.228883
    28  H    0.209460
    29  O   -0.372610
    30  C   -0.323820
    31  H    0.211361
    32  H    0.205922
    33  H    0.205911
 Sum of Mulliken charges =   0.00000

 Dipole moment (field-independent basis, Debye):
    X=             -0.7118    Y=             -1.2961    Z=              0.0424  Tot=              1.4793
 Quadrupole moment (field-independent basis, Debye-Ang):
   XX=            -65.8816   YY=           -101.3302   ZZ=           -118.1313
   XY=             10.0057   XZ=              0.3856   YZ=             -0.0074

  Exact polarizability: 581.068   0.747 184.431   0.774  -0.025 112.499
 Approx polarizability: 787.179  -6.212 306.559   0.811  -0.036 165.255

                      1                      2                      3
                      A                      A                      A
 Frequencies --      7.2829                20.9975                23.0086
 Red. masses --      3.0223                 2.8801                 3.1937
 Frc consts  --      0.0001                 0.0007                 0.0010
 IR Inten    --      0.3575                 1.1729                 0.7180

                      4                      5                      6
                      A                      A                      A
 Frequencies --     23.2183                58.7141                68.3562
 Red. masses --      1.5776                 4.4490                 5.4616
 Frc consts  --      0.0005                 0.0090                 0.0150
 IR Inten    --      0.2587                 0.0253                 0.0648

                      7                      8                      9
                      A                      A                      A
 Frequencies --     96.7106               141.4315               189.1655
 Red. masses --      3.8950                 5.0900                 5.5912
 Frc consts  --      0.0215                 0.0600                 0.1179
 IR Inten    --      2.5253                 1.5609                 0.0372

                     10                     11                     12
                      A                      A                      A
 Frequencies --    204.2054               210.2198               263.3485
 Red. masses --      7.1766                 3.5899                 1.4455
 Frc consts  --      0.1763                 0.0935                 0.0591
 IR Inten    --      0.3330                 1.4757                 0.4158

                     13                     14                     15
                      A                      A                      A
 Frequencies --    270.2916               308.3019               344.8295
 Red. masses --      3.7846                 3.1843                 2.9168
 Frc consts  --      0.1629                 0.1783                 0.2043
 IR Inten    --      2.6587                 0.2523                 0.0335

                     16                     17                     18
                      A                      A                      A
 Frequencies --    399.5712               403.8354               412.1240
 Red. masses --      5.6691                 6.7069                 2.9586
 Frc consts  --      0.5333                 0.6444                 0.2961
 IR Inten    --      5.5326                10.8952                 0.0183

                     19                     20                     21
                      A                      A                      A
 Frequencies --    422.2875               461.4699               487.4061
 Red. masses --      3.0635                 6.3798                 3.5471
 Frc consts  --      0.3219                 0.8005                 0.4965
 IR Inten    --      0.0951                10.4935                19.2871

                     22                     23                     24
                      A                      A                      A
 Frequencies --    500.6077               527.9342               534.6320
 Red. masses --      5.1768                 5.9311                 2.6104
 Frc consts  --      0.7644                 0.9740                 0.4396
 IR Inten    --      8.9338                 3.7367                 0.6383

                     25                     26                     27
                      A                      A                      A
 Frequencies --    596.8661               601.1395               634.6470
 Red. masses --      5.5787                 4.1599                 8.9835
 Frc consts  --      1.1710                 0.8857                 2.1319
 IR Inten    --     11.9439                13.5955                 0.2148

                     28                     29                     30
                      A                      A                      A
 Frequencies --    656.9764               668.6382               703.2996
 Red. masses --      7.1260                 8.5009                 5.0869
 Frc consts  --      1.8122                 2.2392                 1.4825
 IR Inten    --      0.9012                 0.1563                 9.6549

                     31                     32                     33
                      A                      A                      A
 Frequencies --    720.2333               725.8764               798.6859
 Red. masses --      3.4426                 3.8972                 5.0765
 Frc consts  --      1.0522                 1.2098                 1.9080
 IR Inten    --      1.6883                 1.3348                 0.1441

                     34                     35                     36
                      A                      A                      A
 Frequencies --    807.2405               820.4750               832.0264
 Red. masses --      5.3692                 1.2979                 4.6649
 Frc consts  --      2.0614                 0.5148                 1.9027
 IR Inten    --      8.0774                 6.8386                 5.6760

                     37                     38                     39
                      A                      A                      A
 Frequencies --    836.1194               847.3930               849.9676
 Red. masses --      1.7595                 1.2490                 1.7940
 Frc consts  --      0.7247                 0.5284                 0.7636
 IR Inten    --     48.8250                 0.0244                49.1211

                     40                     41                     42
                      A                      A                      A
 Frequencies --    952.6595               967.6520               971.5250
 Red. masses --      1.3340                 1.2980                 1.3242
 Frc consts  --      0.7133                 0.7161                 0.7364
 IR Inten    --      0.1575                 0.9246                 0.0398

                     43                     44                     45
                      A                      A                      A
 Frequencies --    975.6148              1000.8683              1021.0044
 Red. masses --      1.3564                 8.2032                 1.4054
 Frc consts  --      0.7606                 4.8416                 0.8632
 IR Inten    --      0.0014                 1.1370                 0.1006

                     46                     47                     48
                      A                      A                      A
 Frequencies --   1029.5092              1040.1740              1065.7366
 Red. masses --      2.7782                 2.7238                 5.6898
 Frc consts  --      1.7349                 1.7363                 3.8076
 IR Inten    --      0.6607                 3.7672                82.1160

                     49                     50                     51
                      A                      A                      A
 Frequencies --   1070.2814              1148.0140              1154.5652
 Red. masses --      1.5299                 1.3581                 1.3508
 Frc consts  --      1.0325                 1.0546                 1.0609
 IR Inten    --     24.1613                10.1822                 4.9890

                     52                     53                     54
                      A                      A                      A
 Frequencies --   1180.5403              1211.2817              1215.0111
 Red. masses --      1.2697                 1.2621                 1.4547
 Frc consts  --      1.0426                 1.0910                 1.2653
 IR Inten    --      1.0228                71.3421                41.4266

                     55                     56                     57
                      A                      A                      A
 Frequencies --   1222.3569              1235.1998              1243.1398
 Red. masses --      1.2662                 3.0358                 2.4721
 Frc consts  --      1.1146                 2.7289                 2.2509
 IR Inten    --      7.8151                 2.8969                23.7408

                     58                     59                     60
                      A                      A                      A
 Frequencies --   1293.1291              1322.5135              1332.5915
 Red. masses --      4.3676                 4.5563                 2.4682
 Frc consts  --      4.3031                 4.6953                 2.5824
 IR Inten    --    416.5832                 0.0292                71.4018

                     61                     62                     63
                      A                      A                      A
 Frequencies --   1344.7460              1349.4780              1391.7963
 Red. masses --      1.9662                 1.4895                 4.6338
 Frc consts  --      2.0949                 1.5981                 5.2885
 IR Inten    --     53.4486                 0.0711                21.2849

                     64                     65                     66
                      A                      A                      A
 Frequencies --   1438.4426              1448.0730              1458.3146
 Red. masses --      1.2333                 2.5048                 3.0174
 Frc consts  --      1.5035                 3.0946                 3.7809
 IR Inten    --      0.8654                 1.3273                 5.5058

                     67                     68                     69
                      A                      A                      A
 Frequencies --   1493.5469              1510.0358              1512.7102
 Red. masses --      1.1844                 1.1064                 1.0542
 Frc consts  --      1.5566                 1.4864                 1.4213
 IR Inten    --     27.4805                 9.8130                 7.1240

                     70                     71                     72
                      A                      A                      A
 Frequencies --   1519.0789              1526.1851              1547.8047
 Red. masses --      1.0458                 1.0626                 2.3504
 Frc consts  --      1.4219                 1.4583                 3.3176
 IR Inten    --      8.4261                68.7358               193.0907

                     73                     74                     75
                      A                      A                      A
 Frequencies --   1559.2160              1598.6708              1602.2131
 Red. masses --      2.7289                 5.0132                 6.2973
 Frc consts  --      3.9089                 7.5488                 9.5245
 IR Inten    --     23.6082                 0.6464                19.7002

                     76                     77                     78
                      A                      A                      A
 Frequencies --   1655.6214              1658.1434              2233.9821
 Red. masses --      5.4821                 5.4785                11.9986
 Frc consts  --      8.8536                 8.8748                35.2809
 IR Inten    --    173.9321                18.6972                12.0893

                     79                     80                     81
                      A                      A                      A
 Frequencies --   2309.1633              3023.3702              3032.8874
 Red. masses --     11.9956                 1.0342                 1.0406
 Frc consts  --     37.6861                 5.5700                 5.6398
 IR Inten    --     20.3646                88.0623                53.6496

                     82                     83                     84
                      A                      A                      A
 Frequencies --   3085.3659              3089.0542              3115.4054
 Red. masses --      1.1070                 1.0952                 1.1027
 Frc consts  --      6.2089                 6.1573                 6.3057
 IR Inten    --     38.0962                22.5217                16.7612

                     85                     86                     87
                      A                      A                      A
 Frequencies --   3158.5526              3174.0131              3174.8188
 Red. masses --      1.1000                 1.0888                 1.0888
 Frc consts  --      6.4657                 6.4625                 6.4661
 IR Inten    --     27.5899                14.9007                35.0947

                     88                     89                     90
                      A                      A                      A
 Frequencies --   3199.8971              3201.2600              3204.6691
 Red. masses --      1.0882                 1.0893                 1.0931
 Frc consts  --      6.5651                 6.5771                 6.6142
 IR Inten    --      8.9348                 3.7811                19.0187

                     91                     92                     93
                      A                      A                      A
 Frequencies --   3206.2134              3216.2706              3225.4450
 Red. masses --      1.0940                 1.0951                 1.0926
 Frc consts  --      6.6263                 6.6745                 6.6973
 IR Inten    --      0.6986                 8.9225                15.7539

 - Thermochemistry -
 -------------------
 Temperature   298.150 Kelvin.  Pressure   1.00000 Atm.
 Atom     1 has atomic number  6 and mass  12.00000

 Molecular mass:   246.10447 amu.
 Principal axes and moments of inertia in atomic units:
                           1         2         3
     Eigenvalues --   712.80022********************
           X            1.00000   0.00316   0.00004
           Y           -0.00316   1.00000   0.00001
           Z           -0.00004  -0.00001   1.00000
 This molecule is an asymmetric top.
 Rotational symmetry number  1.
 Warning -- assumption of classical behavior for rotation
           may cause significant error
 Rotational temperatures (Kelvin)      0.12151     0.00376     0.00365
 Rotational constants (GHZ):           2.53190     0.07826     0.07598
 Zero-point vibrational energy     690229.4 (Joules/Mol)
                                  164.96879 (Kcal/Mol)
 Warning -- explicit consideration of  26 degrees of freedom as
           vibrations may cause significant error
 Vibrational temperatures:     10.48    30.21    33.10    33.41    84.48
          (Kelvin)             98.35   139.15   203.49   272.17   293.81
                              302.46   378.90   388.89   443.58   496.13
                              574.89   581.03   592.95   607.58   663.95
                              701.27   720.26   759.58   769.22   858.76
                              864.91   913.12   945.24   962.02  1011.89
                             1036.26  1044.37  1149.13  1161.44  1180.48
                             1197.10  1202.99  1219.21  1222.91  1370.66
                             1392.24  1397.81  1403.69  1440.03  1469.00
                             1481.23  1496.58  1533.36  1539.90  1651.74
                             1661.16  1698.53  1742.76  1748.13  1758.70
                             1777.18  1788.60  1860.52  1902.80  1917.30
                             1934.79  1941.60  2002.48  2069.60  2083.45
                             2098.19  2148.88  2172.60  2176.45  2185.62
                             2195.84  2226.95  2243.36  2300.13  2305.23
                             2382.07  2385.70  3214.20  3322.37  4349.96
                             4363.65  4439.15  4444.46  4482.37  4544.45
                             4566.70  4567.86  4603.94  4605.90  4610.80
                             4613.03  4627.50  4640.70

 Zero-point correction=                           0.262895 (Hartree/Particle)
 Thermal correction to Energy=                    0.280196
 Thermal correction to Enthalpy=                  0.281140
 Thermal correction to Gibbs Free Energy=         0.212500
 Sum of electronic and zero-point Energies=           -769.250233
 Sum of electronic and thermal Energies=              -769.232931
 Sum of electronic and thermal Enthalpies=            -769.231987
 Sum of electronic and thermal Free Energies=         -769.300627

                     E (Thermal)             CV                S
                      KCal/Mol        Cal/Mol-Kelvin    Cal/Mol-Kelvin
 Total                  175.826             64.501            144.466
 Electronic               0.000              0.000              0.000
 Translational            0.889              2.981             42.402
 Rotational               0.889              2.981             34.323
 Vibrational            174.048             58.539             67.741
 Vibration     1          0.593              1.987              8.641
 Vibration     2          0.593              1.986              6.538
 Vibration     3          0.593              1.985              6.356
 Vibration     4          0.593              1.985              6.338
 Vibration     5          0.596              1.974              4.500
 Vibration     6          0.598              1.969              4.200
 Vibration     7          0.603              1.952              3.520
 Vibration     8          0.615              1.912              2.784
 Vibration     9          0.633              1.855              2.236
 Vibration    10          0.640              1.834              2.095
 Vibration    11          0.642              1.825              2.042
 Vibration    12          0.670              1.740              1.639
 Vibration    13          0.674              1.728              1.594
 Vibration    14          0.698              1.658              1.371
 Vibration    15          0.723              1.586              1.190
 Vibration    16          0.766              1.471              0.964
 Vibration    17          0.769              1.462              0.949
 Vibration    18          0.776              1.444              0.919
 Vibration    19          0.785              1.422              0.884
 Vibration    20          0.819              1.336              0.762
 Vibration    21          0.843              1.278              0.690
 Vibration    22          0.856              1.249              0.657
 Vibration    23          0.883              1.188              0.592
 Vibration    24          0.890              1.173              0.577
 Vibration    25          0.955              1.038              0.455
 Vibration    26          0.959              1.029              0.448

                           ! Non-Optimized Parameters !
 Normal termination of Gaussian 16 at Mon Sep 18 06:33:23 2023.
