 Gaussian 16, Revision B.01,
 Gaussian 16:  EM64L-G16RevB.01 20-Dec-2017

 ---------------------------------------------------------
 # opt freq b3lyp/6-31+g(d) empiricaldispersion=gd3 volume
 ---------------------------------------------------------

 -------------------
 Title Card Required
 -------------------
 Symbolic Z-matrix:
 Charge =  0 Multiplicity = 1

 SCF Done:  E(RB3LYP) =  -1015.12827263     A.U. after   15 cycles
 SCF Done:  E(RB3LYP) =  -1015.13015434     A.U. after   12 cycles
 SCF Done:  E(RB3LYP) =  -1015.13034179     A.U. after   11 cycles
 SCF Done:  E(RB3LYP) =  -1015.13035363     A.U. after   10 cycles
 SCF Done:  E(RB3LYP) =  -1015.13035398     A.U. after    9 cycles
 SCF Done:  E(RB3LYP) =  -1015.13035403     A.U. after    9 cycles
 SCF Done:  E(RB3LYP) =  -1015.13035405     A.U. after    8 cycles
 Optimization completed.
    -- Stationary point found.
 Normal termination of Gaussian 16 at Mon Sep 18 04:48:16 2023.

 ---------------------------------------------------------------------
 #N Geom=AllCheck Guess=TCheck SCRF=Check GenChk RB3LYP/6-31+G(d) Freq
 ---------------------------------------------------------------------

 Structure from the checkpoint file:  "molecule_33.chk"
 -------------------
 Title Card Required
 -------------------
 Charge =  0 Multiplicity = 1

                         Standard orientation:
 ---------------------------------------------------------------------
 Center     Atomic      Atomic             Coordinates (Angstroms)
 Number     Number       Type             X           Y           Z
 ---------------------------------------------------------------------
      1          6           0        5.124520   -1.142627    0.000063
      2          6           0        3.731653   -1.202843   -0.000094
      3          6           0        2.999514   -0.000079   -0.000142
      4          6           0        3.731403    1.202836   -0.000038
      5          6           0        5.124282    1.142910    0.000114
      6          1           0        5.708928   -2.060795    0.000103
      7          1           0        3.218540   -2.159518   -0.000180
      8          1           0        3.218091    2.159405   -0.000078
      9          1           0        5.708500    2.061200    0.000199
     10          6           0        1.575983   -0.000229   -0.000326
     11          6           0        0.359087   -0.000313   -0.000439
     12          6           0       -1.065036   -0.000192   -0.000232
     13          6           0       -1.783347   -1.213533   -0.000107
     14          6           0       -1.783144    1.213270   -0.000168
     15          6           0       -3.175872   -1.216561    0.000069
     16          1           0       -1.241179   -2.154242   -0.000156
     17          6           0       -3.175669    1.216531    0.000008
     18          1           0       -1.240819    2.153888   -0.000265
     19          6           0       -3.862677    0.000043    0.000128
     20          1           0       -3.726660   -2.151512    0.000162
     21          1           0       -3.726301    2.151574    0.000053
     22          7           0        5.826570    0.000215    0.000169
     23         17           0       -5.618193    0.000189    0.000351
 ---------------------------------------------------------------------

 SCF Done:  E(RB3LYP) =  -1015.13035405     A.U. after    1 cycles

 The electronic state is 1-A.
 Alpha  occ. eigenvalues -- -101.56728 -14.34712 -10.27550 -10.24818 -10.24339
 Alpha  occ. eigenvalues --  -10.23770 -10.23770 -10.22727 -10.22726 -10.22573
 Alpha  occ. eigenvalues --  -10.22573 -10.21799 -10.21791 -10.21791 -10.21470
 Alpha  occ. eigenvalues --   -9.48243  -7.24650  -7.23682  -7.23643  -0.95488
 Alpha  occ. eigenvalues --   -0.91170  -0.86497  -0.84316  -0.79078  -0.78150
 Alpha  occ. eigenvalues --   -0.77657  -0.74186  -0.66528  -0.64643  -0.64359
 Alpha  occ. eigenvalues --   -0.62949  -0.57245  -0.55111  -0.50185  -0.49884
 Alpha  occ. eigenvalues --   -0.49541  -0.48902  -0.46514  -0.45532  -0.44538
 Alpha  occ. eigenvalues --   -0.44347  -0.42077  -0.41453  -0.39854  -0.38792
 Alpha  occ. eigenvalues --   -0.38269  -0.37125  -0.33975  -0.32894  -0.29409
 Alpha  occ. eigenvalues --   -0.29390  -0.28555  -0.27834  -0.27125  -0.23957
 Alpha virt. eigenvalues --   -0.08150  -0.03955  -0.03049  -0.02807  -0.01020
 Alpha virt. eigenvalues --    0.00472   0.00759   0.01188   0.02237   0.02697
 Alpha virt. eigenvalues --    0.02729   0.04413   0.04583   0.04641   0.04656

 Mulliken charges:
               1
     1  C   -0.427176
     2  C    0.240942
     3  C   -0.071408
     4  C    0.240522
     5  C   -0.427239
     6  H    0.184178
     7  H    0.198114
     8  H    0.198114
     9  H    0.184178
    10  C   -0.022518
    11  C   -0.132448
    12  C   -0.319333
    13  C   -0.121174
    14  C   -0.121102
    15  C   -0.387069
    16  H    0.201772
    17  C   -0.387162
    18  H    0.201773
    19  C    0.268629
    20  H    0.206081
    21  H    0.206081
    22  N   -0.160695
    23  Cl   0.246939
 Sum of Mulliken charges =   0.00000

 Dipole moment (field-independent basis, Debye):
    X=             -1.3928    Y=             -0.0001    Z=             -0.0001  Tot=              1.3928
 Quadrupole moment (field-independent basis, Debye-Ang):
   XX=           -117.4727   YY=            -80.1598   ZZ=            -98.7272
   XY=             -0.0008   XZ=             -0.0004   YZ=              0.0000

  Exact polarizability: 359.007   0.001 156.576  -0.002   0.000  84.856
 Approx polarizability: 501.888   0.003 267.066   0.001   0.000 125.564

                      1                      2                      3
                      A                      A                      A
 Frequencies --     22.5443                36.3210                37.0009
 Red. masses --      3.6188                10.4299                 7.0352
 Frc consts  --      0.0011                 0.0081                 0.0057
 IR Inten    --      0.0000                 0.2753                 0.2340

                      4                      5                      6
                      A                      A                      A
 Frequencies --    104.0126               133.5066               208.0795
 Red. masses --      8.2947                 6.2819                 7.8022
 Frc consts  --      0.0529                 0.0660                 0.1990
 IR Inten    --      0.0335                 0.0315                 2.1885

                      7                      8                      9
                      A                      A                      A
 Frequencies --    221.0019               295.2875               332.3518
 Red. masses --      9.9259                 6.9397                 7.4640
 Frc consts  --      0.2856                 0.3565                 0.4858
 IR Inten    --      0.4112                 0.9536                 5.0932

                     10                     11                     12
                      A                      A                      A
 Frequencies --    387.1971               415.7772               435.2951
 Red. masses --      2.5952                 2.9800                11.0857
 Frc consts  --      0.2292                 0.3035                 1.2376
 IR Inten    --      0.0000                 0.0000                28.2294

                     13                     14                     15
                      A                      A                      A
 Frequencies --    441.4290               481.3892               537.4465
 Red. masses --      5.4852                 6.6256                 3.1046
 Frc consts  --      0.6297                 0.9046                 0.5283
 IR Inten    --      0.3209                 2.5724                28.1751

                     16                     17                     18
                      A                      A                      A
 Frequencies --    548.4931               574.7110               607.3491
 Red. masses --      8.1500                 3.8757                 8.2863
 Frc consts  --      1.4446                 0.7542                 1.8009
 IR Inten    --      0.0271                 4.7381                 0.7628

                     19                     20                     21
                      A                      A                      A
 Frequencies --    649.2739               683.7395               713.5352
 Red. masses --      7.3246                 7.0826                 4.0706
 Frc consts  --      1.8192                 1.9508                 1.2211
 IR Inten    --      0.3746                 0.3350                 0.6495

                     22                     23                     24
                      A                      A                      A
 Frequencies --    745.8762               748.7055               834.9620
 Red. masses --      6.9668                 3.4836                 1.2464
 Frc consts  --      2.2836                 1.1505                 0.5120
 IR Inten    --     37.3001                 0.0726                 0.0001

                     25                     26                     27
                      A                      A                      A
 Frequencies --    835.1634               841.2391               867.1268
 Red. masses --      1.4915                 1.5406                 5.9851
 Frc consts  --      0.6129                 0.6423                 2.6515
 IR Inten    --     14.8932                81.5833                 0.7948

                     28                     29                     30
                      A                      A                      A
 Frequencies --    879.5296               966.9521               974.8912
 Red. masses --      1.2489                 1.3100                 1.3516
 Frc consts  --      0.5692                 0.7217                 0.7568
 IR Inten    --      0.0000                 0.0145                 0.0000

                     31                     32                     33
                      A                      A                      A
 Frequencies --    980.1511               998.4952              1006.5173
 Red. masses --      1.3193                 1.4559                 7.5343
 Frc consts  --      0.7468                 0.8552                 4.4971
 IR Inten    --      0.3181                 0.0000                 6.8103

                     34                     35                     36
                      A                      A                      A
 Frequencies --   1031.1937              1095.9987              1105.7732
 Red. masses --      3.7972                 2.0330                 3.3240
 Frc consts  --      2.3790                 1.4388                 2.3947
 IR Inten    --     35.3364                 2.5264                85.3259

                     37                     38                     39
                      A                      A                      A
 Frequencies --   1118.9548              1144.5075              1170.1695
 Red. masses --      1.5848                 1.3922                 3.5410
 Frc consts  --      1.1691                 1.0745                 2.8568
 IR Inten    --      0.2709                 4.9209                 0.2299

                     40                     41                     42
                      A                      A                      A
 Frequencies --   1220.0937              1254.0653              1282.3700
 Red. masses --      1.1604                 1.2766                 9.3978
 Frc consts  --      1.0178                 1.1829                 9.1055
 IR Inten    --      0.7220                10.4023                 0.3836

                     43                     44                     45
                      A                      A                      A
 Frequencies --   1318.7003              1334.1732              1352.0163
 Red. masses --      8.7750                 1.2973                 3.7380
 Frc consts  --      8.9906                 1.3606                 4.0259
 IR Inten    --      0.6305                 0.0795                 2.6814

                     46                     47                     48
                      A                      A                      A
 Frequencies --   1359.8914              1439.2771              1450.9161
 Red. masses --      1.4100                 2.7195                 1.8743
 Frc consts  --      1.5363                 3.3192                 2.3248
 IR Inten    --      0.2095                 4.5384                16.3079

                     49                     50                     51
                      A                      A                      A
 Frequencies --   1524.5045              1541.2443              1582.1189
 Red. masses --      2.0810                 2.4749                 6.9921
 Frc consts  --      2.8496                 3.4638                10.3119
 IR Inten    --     15.1719                82.9724                23.5039

                     52                     53                     54
                      A                      A                      A
 Frequencies --   1597.7068              1633.3014              1646.0565
 Red. masses --      6.5965                 5.1150                 5.4676
 Frc consts  --      9.9211                 8.0395                 8.7284
 IR Inten    --      0.0007               181.0777                26.7623

                     55                     56                     57
                      A                      A                      A
 Frequencies --   2309.7214              3175.2158              3177.6307
 Red. masses --     11.9973                 1.0880                 1.0911
 Frc consts  --     37.7097                 6.4627                 6.4913
 IR Inten    --     48.1824                29.0940                21.7159

                     58                     59                     60
                      A                      A                      A
 Frequencies --   3205.0332              3205.5943              3213.3473
 Red. masses --      1.0890                 1.0890                 1.0932
 Frc consts  --      6.5910                 6.5929                 6.6508
 IR Inten    --      4.5829                 1.9018                18.2639

                     61                     62                     63
                      A                      A                      A
 Frequencies --   3214.3111              3221.8565              3223.4227
 Red. masses --      1.0950                 1.0946                 1.0955
 Frc consts  --      6.6654                 6.6948                 6.7063
 IR Inten    --      0.6785                 6.1147                 1.3710

 - Thermochemistry -
 -------------------
 Temperature   298.150 Kelvin.  Pressure   1.00000 Atm.
 Atom     1 has atomic number  6 and mass  12.00000

 Molecular mass:   213.03453 amu.
 Principal axes and moments of inertia in atomic units:
                           1         2         3
     Eigenvalues --   619.81721********************
           X            1.00000   0.00000   0.00002
           Y            0.00000   1.00000   0.00000
           Z           -0.00002   0.00000   1.00000
 This molecule is an asymmetric top.
 Rotational symmetry number  1.
 Warning -- assumption of classical behavior for rotation
           may cause significant error
 Rotational temperatures (Kelvin)      0.13974     0.00733     0.00696
 Rotational constants (GHZ):           2.91173     0.15265     0.14504
 Zero-point vibrational energy     446772.4 (Joules/Mol)
                                  106.78117 (Kcal/Mol)
 Warning -- explicit consideration of  18 degrees of freedom as
           vibrations may cause significant error
 Vibrational temperatures:     32.44    52.26    53.24   149.65   192.09
          (Kelvin)            299.38   317.97   424.85   478.18   557.09
                              598.21   626.29   635.12   692.61   773.27
                              789.16   826.88   873.84   934.16   983.75
                             1026.62  1073.15  1077.22  1201.32  1201.61
                             1210.36  1247.60  1265.45  1391.23  1402.65
                             1410.22  1436.61  1448.15  1483.66  1576.90
                             1590.96  1609.93  1646.69  1683.61  1755.44
                             1804.32  1845.04  1897.32  1919.58  1945.25
                             1956.58  2070.80  2087.54  2193.42  2217.51
                             2276.32  2298.74  2349.96  2368.31  3323.17
                             4568.43  4571.90  4611.33  4612.14  4623.29
                             4624.68  4635.53  4637.79

 Zero-point correction=                           0.170167 (Hartree/Particle)
 Thermal correction to Energy=                    0.182353
 Thermal correction to Enthalpy=                  0.183297
 Thermal correction to Gibbs Free Energy=         0.128703
 Sum of electronic and zero-point Energies=          -1014.960187
 Sum of electronic and thermal Energies=             -1014.948001
 Sum of electronic and thermal Enthalpies=           -1014.947057
 Sum of electronic and thermal Free Energies=        -1015.001651

                     E (Thermal)             CV                S
                      KCal/Mol        Cal/Mol-Kelvin    Cal/Mol-Kelvin
 Total                  114.428             46.207            114.902
 Electronic               0.000              0.000              0.000
 Translational            0.889              2.981             41.972
 Rotational               0.889              2.981             32.878
 Vibrational            112.651             40.245             40.053
 Vibration     1          0.593              1.985              6.396
 Vibration     2          0.594              1.982              5.450
 Vibration     3          0.594              1.982              5.414
 Vibration     4          0.605              1.946              3.378
 Vibration     5          0.613              1.920              2.895
 Vibration     6          0.641              1.828              2.060
 Vibration     7          0.648              1.809              1.951
 Vibration     8          0.690              1.683              1.443
 Vibration     9          0.714              1.611              1.249
 Vibration    10          0.756              1.498              1.011
 Vibration    11          0.779              1.436              0.906
 Vibration    12          0.796              1.393              0.842
 Vibration    13          0.801              1.380              0.822
 Vibration    14          0.838              1.291              0.706
 Vibration    15          0.892              1.167              0.571
 Vibration    16          0.904              1.143              0.547
 Vibration    17          0.931              1.086              0.495
 Vibration    18          0.966              1.016              0.437

 Optimization completed.
    -- Stationary point found.
 Normal termination of Gaussian 16 at Mon Sep 18 04:51:40 2023.
