 Gaussian 16, Revision B.01,
 Gaussian 16:  EM64L-G16RevB.01 20-Dec-2017

 ---------------------------------------------------------
 # opt freq b3lyp/6-31+g(d) empiricaldispersion=gd3 volume
 ---------------------------------------------------------

 -------------------
 Title Card Required
 -------------------
 Symbolic Z-matrix:
 Charge =  0 Multiplicity = 1

 SCF Done:  E(RB3LYP) =  -753.244975511     A.U. after   15 cycles
 SCF Done:  E(RB3LYP) =  -753.264084415     A.U. after   15 cycles
 SCF Done:  E(RB3LYP) =  -753.257547677     A.U. after   16 cycles
 SCF Done:  E(RB3LYP) =  -753.263752808     A.U. after   14 cycles
 SCF Done:  E(RB3LYP) =  -753.265578520     A.U. after   10 cycles
 SCF Done:  E(RB3LYP) =  -753.265818372     A.U. after   13 cycles
 SCF Done:  E(RB3LYP) =  -753.264958632     A.U. after   14 cycles
 SCF Done:  E(RB3LYP) =  -753.265838301     A.U. after   13 cycles
 SCF Done:  E(RB3LYP) =  -753.265912662     A.U. after   13 cycles
 SCF Done:  E(RB3LYP) =  -753.265944813     A.U. after   13 cycles
 SCF Done:  E(RB3LYP) =  -753.269684257     A.U. after   14 cycles
 SCF Done:  E(RB3LYP) =  -753.270547844     A.U. after   13 cycles
 SCF Done:  E(RB3LYP) =  -753.271074390     A.U. after   13 cycles
 SCF Done:  E(RB3LYP) =  -753.271126430     A.U. after   15 cycles
 SCF Done:  E(RB3LYP) =  -753.270945554     A.U. after   15 cycles
 SCF Done:  E(RB3LYP) =  -753.271121845     A.U. after   15 cycles
 SCF Done:  E(RB3LYP) =  -753.271162315     A.U. after   13 cycles
 SCF Done:  E(RB3LYP) =  -753.271177651     A.U. after   12 cycles
 SCF Done:  E(RB3LYP) =  -753.271177726     A.U. after   10 cycles
 Optimization completed.
    -- Stationary point found.
 Normal termination of Gaussian 16 at Mon Sep 18 09:14:27 2023.

 ---------------------------------------------------------------------
 #N Geom=AllCheck Guess=TCheck SCRF=Check GenChk RB3LYP/6-31+G(d) Freq
 ---------------------------------------------------------------------

 Structure from the checkpoint file:  "molecule_67.chk"
 -------------------
 Title Card Required
 -------------------
 Charge =  0 Multiplicity = 1

                         Standard orientation:
 ---------------------------------------------------------------------
 Center     Atomic      Atomic             Coordinates (Angstroms)
 Number     Number       Type             X           Y           Z
 ---------------------------------------------------------------------
      1          6           0       -3.607962    1.411380    0.001869
      2          6           0       -2.222167    1.364387    0.001410
      3          6           0       -1.537602    0.127151   -0.000470
      4          6           0       -2.301898   -1.053564   -0.001786
      5          6           0       -3.697164   -1.014250   -0.001062
      6          6           0       -4.357309    0.222845    0.000614
      7          1           0       -4.138072    2.358972    0.003234
      8          1           0       -1.649922    2.287452    0.002495
      9          1           0       -1.794648   -2.014022   -0.003070
     10          1           0       -4.251167   -1.946031   -0.001677
     11          6           0       -0.114620    0.079871   -0.000799
     12          6           0        1.102534    0.043568   -0.000938
     13          6           0        2.526273   -0.000363   -0.000822
     14          6           0        3.283037    1.191019   -0.002185
     15          6           0        3.208309   -1.236011    0.001254
     16          6           0        4.676191    1.152652   -0.001538
     17          1           0        2.768520    2.147053   -0.003639
     18          6           0        4.601162   -1.283471    0.001764
     19          1           0        2.635928   -2.158582    0.002465
     20          6           0        5.307900   -0.086015    0.000417
     21          1           0        5.270742    2.060588   -0.002525
     22          1           0        5.138793   -2.226232    0.003324
     23          9           0        6.667149   -0.127920    0.001034
     24          8           0       -5.712389    0.378965    0.001320
     25          6           0       -6.533448   -0.783389   -0.000586
     26          1           0       -7.561948   -0.418641   -0.004094
     27          1           0       -6.358561   -1.393559   -0.896922
     28          1           0       -6.364311   -1.392304    0.897683
 ---------------------------------------------------------------------

 SCF Done:  E(RB3LYP) =  -753.271177726     A.U. after    1 cycles

 The electronic state is 1-A.
 Alpha  occ. eigenvalues --  -24.72720 -19.19865 -10.28677 -10.26591 -10.25417
 Alpha  occ. eigenvalues --  -10.22898 -10.22072 -10.21541 -10.21534 -10.21187
 Alpha  occ. eigenvalues --  -10.21182 -10.21044 -10.20870 -10.20577 -10.20105
 Alpha  occ. eigenvalues --  -10.19852 -10.19574  -1.23128  -1.08162  -0.88006
 Alpha  occ. eigenvalues --   -0.87099  -0.80064  -0.78066  -0.77123  -0.76462
 Alpha  occ. eigenvalues --   -0.73567  -0.70557  -0.64080  -0.63811  -0.62654
 Alpha  occ. eigenvalues --   -0.61156  -0.56025  -0.55324  -0.54007  -0.51692
 Alpha  occ. eigenvalues --   -0.50325  -0.49773  -0.48264  -0.47313  -0.46151
 Alpha  occ. eigenvalues --   -0.46011  -0.44537  -0.43887  -0.43111  -0.41459
 Alpha  occ. eigenvalues --   -0.41155  -0.39939  -0.39806  -0.38517  -0.37730
 Alpha  occ. eigenvalues --   -0.36172  -0.35151  -0.34277  -0.30868  -0.27702
 Alpha  occ. eigenvalues --   -0.27443  -0.26873  -0.26040  -0.20976
 Alpha virt. eigenvalues --   -0.05356  -0.02889  -0.02216  -0.00262  -0.00192
 Alpha virt. eigenvalues --    0.00533   0.01742   0.01960   0.02368   0.03194
 Alpha virt. eigenvalues --    0.03486   0.04052   0.04138   0.04381   0.04807

 Mulliken charges:
               1
     1  C   -0.153887
     2  C   -0.458030
     3  C    0.140401
     4  C   -0.641859
     5  C    0.458237
     6  C   -0.052756
     7  H    0.194602
     8  H    0.194661
     9  H    0.193396
    10  H    0.179543
    11  C    0.063343
    12  C   -0.064330
    13  C    0.388550
    14  C   -0.509082
    15  C   -0.506327
    16  C    0.095249
    17  H    0.199257
    18  C    0.071815
    19  H    0.199390
    20  C    0.038531
    21  H    0.201941
    22  H    0.201785
    23  F   -0.347253
    24  O   -0.375963
    25  C   -0.332994
    26  H    0.211026
    27  H    0.205272
    28  H    0.205482
 Sum of Mulliken charges =   0.00000

 Dipole moment (field-independent basis, Debye):
    X=             -3.0898    Y=             -1.2144    Z=             -0.0017  Tot=              3.3199
 Quadrupole moment (field-independent basis, Debye-Ang):
   XX=            -93.1808   YY=            -86.5356   ZZ=           -104.1239
   XY=              9.0098   XZ=              0.0119   YZ=             -0.0035

  Exact polarizability: 379.612   1.493 165.960  -0.008  -0.010  94.274
 Approx polarizability: 521.629  -4.086 280.900  -0.017  -0.009 139.314

                      1                      2                      3
                      A                      A                      A
 Frequencies --     19.3899                31.2603                32.5232
 Red. masses --      3.5510                 6.8905                 6.2284
 Frc consts  --      0.0008                 0.0040                 0.0039
 IR Inten    --      0.3459                 0.1182                 0.1621

                      4                      5                      6
                      A                      A                      A
 Frequencies --     75.5492               114.0039               125.3054
 Red. masses --      4.4459                 5.0423                 5.9786
 Frc consts  --      0.0150                 0.0386                 0.0553
 IR Inten    --      1.6954                 1.2914                 0.3408

                      7                      8                      9
                      A                      A                      A
 Frequencies --    192.9556               208.6951               259.0289
 Red. masses --      4.9157                 6.5370                 1.5894
 Frc consts  --      0.1078                 0.1677                 0.0628
 IR Inten    --      4.4856                 0.3337                 0.6155

                     10                     11                     12
                      A                      A                      A
 Frequencies --    268.3895               301.5135               386.3537
 Red. masses --      3.8110                 2.7041                 7.9227
 Frc consts  --      0.1617                 0.1448                 0.6968
 IR Inten    --      2.0792                 0.2951                 4.3229

                     13                     14                     15
                      A                      A                      A
 Frequencies --    409.0213               421.6962               424.1565
 Red. masses --      6.3944                 3.0703                 3.1087
 Frc consts  --      0.6303                 0.3217                 0.3295
 IR Inten    --      0.1927                 0.0121                 0.0306

                     16                     17                     18
                      A                      A                      A
 Frequencies --    435.4734               480.3647               481.6183
 Red. masses --      6.5425                 6.7102                 4.4470
 Frc consts  --      0.7310                 0.9123                 0.6078
 IR Inten    --      9.6290                18.8764                 0.4215

                     19                     20                     21
                      A                      A                      A
 Frequencies --    519.0536               538.5667               553.4038
 Red. masses --      5.2382                 2.4375                 6.8694
 Frc consts  --      0.8315                 0.4166                 1.2395
 IR Inten    --     26.9703                31.6290                 2.2889

                     22                     23                     24
                      A                      A                      A
 Frequencies --    562.8473               623.8617               652.0147
 Red. masses --      3.4051                 6.2584                 7.2334
 Frc consts  --      0.6356                 1.4351                 1.8118
 IR Inten    --      0.0248                 1.0084                 0.4210

                     25                     26                     27
                      A                      A                      A
 Frequencies --    658.1876               714.0028               719.9624
 Red. masses --      7.2474                 4.0828                 4.0490
 Frc consts  --      1.8498                 1.2263                 1.2366
 IR Inten    --      0.3888                 0.2731                 0.1307

                     28                     29                     30
                      A                      A                      A
 Frequencies --    767.2242               819.6696               825.3058
 Red. masses --      5.7566                 1.2824                 1.2444
 Frc consts  --      1.9965                 0.5076                 0.4994
 IR Inten    --     37.8384                 7.2529                 0.0032

                     31                     32                     33
                      A                      A                      A
 Frequencies --    827.9352               845.9501               850.8813
 Red. masses --      6.4400                 1.6515                 1.6576
 Frc consts  --      2.6009                 0.6964                 0.7071
 IR Inten    --      5.0850                27.7504               100.4028

                     34                     35                     36
                      A                      A                      A
 Frequencies --    873.5012               949.7287               957.7899
 Red. masses --      6.4333                 1.3246                 1.3198
 Frc consts  --      2.8921                 0.7039                 0.7133
 IR Inten    --      5.7616                 0.1854                 0.1409

                     37                     38                     39
                      A                      A                      A
 Frequencies --    967.3209               969.7211              1028.1348
 Red. masses --      1.3393                 1.3211                 2.8267
 Frc consts  --      0.7384                 0.7320                 1.7605
 IR Inten    --      0.0001                 0.0412                 0.2282

                     40                     41                     42
                      A                      A                      A
 Frequencies --   1032.5816              1065.1243              1129.3210
 Red. masses --      2.5985                 6.4036                 1.3168
 Frc consts  --      1.6324                 4.2803                 0.9894
 IR Inten    --      3.0978                72.7418                 7.3963

                     43                     44                     45
                      A                      A                      A
 Frequencies --   1147.8044              1163.2107              1180.7951
 Red. masses --      1.3547                 3.8220                 1.2698
 Frc consts  --      1.0516                 3.0469                 1.0431
 IR Inten    --     10.1827                18.7230                 1.0306

                     46                     47                     48
                      A                      A                      A
 Frequencies --   1189.5395              1213.0952              1218.2793
 Red. masses --      1.2303                 1.2815                 1.2858
 Frc consts  --      1.0257                 1.1111                 1.1244
 IR Inten    --     53.6869                 8.5193                73.2518

                     49                     50                     51
                      A                      A                      A
 Frequencies --   1250.1243              1292.3833              1321.9733
 Red. masses --      3.2738                 4.2203                 2.7340
 Frc consts  --      3.0144                 4.1531                 2.8151
 IR Inten    --    191.4380               342.8951                 2.0386

                     52                     53                     54
                      A                      A                      A
 Frequencies --   1331.4914              1332.0715              1344.3810
 Red. masses --      1.8840                 2.6704                 1.8800
 Frc consts  --      1.9679                 2.7918                 2.0019
 IR Inten    --      4.0822                37.3142                30.5385

                     55                     56                     57
                      A                      A                      A
 Frequencies --   1355.0588              1443.4450              1457.9945
 Red. masses --      4.7264                 3.0622                 2.9969
 Frc consts  --      5.1133                 3.7592                 3.7535
 IR Inten    --     41.6798                 0.4262                 4.6963

                     58                     59                     60
                      A                      A                      A
 Frequencies --   1493.5338              1518.9556              1526.3692
 Red. masses --      1.1826                 1.0458                 1.0634
 Frc consts  --      1.5542                 1.4217                 1.4598
 IR Inten    --     19.6063                 8.3500                51.6723

                     61                     62                     63
                      A                      A                      A
 Frequencies --   1541.5478              1559.8416              1604.5944
 Red. masses --      2.3839                 2.7381                 6.3597
 Frc consts  --      3.3378                 3.9252                 9.6476
 IR Inten    --     20.8538               372.0181                16.3990

                     64                     65                     66
                      A                      A                      A
 Frequencies --   1623.7657              1649.4457              1661.2375
 Red. masses --      7.0254                 5.6542                 5.6614
 Frc consts  --     10.9136                 9.0635                 9.2053
 IR Inten    --      3.4728                 2.0829               131.8512

                     67                     68                     69
                      A                      A                      A
 Frequencies --   2305.0533              3022.1449              3083.6716
 Red. masses --     11.9975                 1.0343                 1.1069
 Frc consts  --     37.5580                 5.5660                 6.2017
 IR Inten    --     28.8360                77.5004                38.8623

                     70                     71                     72
                      A                      A                      A
 Frequencies --   3157.9819              3198.3455              3199.2099
 Red. masses --      1.0998                 1.0883                 1.0892
 Frc consts  --      6.4625                 6.5592                 6.5684
 IR Inten    --     25.6666                10.1152                 4.1290

                     73                     74                     75
                      A                      A                      A
 Frequencies --   3204.8713              3205.6262              3215.3341
 Red. masses --      1.0888                 1.0890                 1.0950
 Frc consts  --      6.5891                 6.5936                 6.6696
 IR Inten    --      8.5228                 2.8474                 8.4269

                     76                     77                     78
                      A                      A                      A
 Frequencies --   3221.7127              3222.8403              3224.9073
 Red. masses --      1.0949                 1.0954                 1.0924
 Frc consts  --      6.6956                 6.7034                 6.6940
 IR Inten    --      5.8848                 5.6115                12.7711

 - Thermochemistry -
 -------------------
 Temperature   298.150 Kelvin.  Pressure   1.00000 Atm.
 Atom     1 has atomic number  6 and mass  12.00000

 Molecular mass:   226.07939 amu.
 Principal axes and moments of inertia in atomic units:
                           1         2         3
     Eigenvalues --   703.15944********************
           X            0.99999   0.00519   0.00000
           Y           -0.00519   0.99999   0.00000
           Z            0.00000   0.00000   1.00000
 This molecule is an asymmetric top.
 Rotational symmetry number  1.
 Warning -- assumption of classical behavior for rotation
           may cause significant error
 Rotational temperatures (Kelvin)      0.12318     0.00602     0.00575
 Rotational constants (GHZ):           2.56662     0.12553     0.11977
 Zero-point vibrational energy     567042.0 (Joules/Mol)
                                  135.52630 (Kcal/Mol)
 Warning -- explicit consideration of  22 degrees of freedom as
           vibrations may cause significant error
 Vibrational temperatures:     27.90    44.98    46.79   108.70   164.03
          (Kelvin)            180.29   277.62   300.27   372.68   386.15
                              433.81   555.88   588.49   606.73   610.27
                              626.55   691.14   692.94   746.80   774.88
                              796.22   809.81   897.60   938.10   946.99
                             1027.29  1035.87  1103.86  1179.32  1187.43
                             1191.21  1217.13  1224.23  1256.77  1366.45
                             1378.05  1391.76  1395.21  1479.26  1485.65
                             1532.48  1624.84  1651.43  1673.60  1698.90
                             1711.48  1745.37  1752.83  1798.65  1859.45
                             1902.02  1915.72  1916.55  1934.26  1949.63
                             2076.80  2097.73  2148.86  2185.44  2196.10
                             2217.94  2244.26  2308.65  2336.24  2373.18
                             2390.15  3316.46  4348.19  4436.72  4543.63
                             4601.71  4602.95  4611.09  4612.18  4626.15
                             4635.33  4636.95  4639.92

 Zero-point correction=                           0.215975 (Hartree/Particle)
 Thermal correction to Energy=                    0.230466
 Thermal correction to Enthalpy=                  0.231410
 Thermal correction to Gibbs Free Energy=         0.171876
 Sum of electronic and zero-point Energies=           -753.055203
 Sum of electronic and thermal Energies=              -753.040712
 Sum of electronic and thermal Enthalpies=            -753.039768
 Sum of electronic and thermal Free Energies=         -753.099302

                     E (Thermal)             CV                S
                      KCal/Mol        Cal/Mol-Kelvin    Cal/Mol-Kelvin
 Total                  144.619             55.519            125.300
 Electronic               0.000              0.000              0.000
 Translational            0.889              2.981             42.149
 Rotational               0.889              2.981             33.388
 Vibrational            142.842             49.558             49.763
 Vibration     1          0.593              1.986              6.696
 Vibration     2          0.594              1.983              5.748
 Vibration     3          0.594              1.983              5.669
 Vibration     4          0.599              1.965              4.003
 Vibration     5          0.607              1.938              3.200
 Vibration     6          0.610              1.928              3.017
 Vibration     7          0.635              1.850              2.199
 Vibration     8          0.642              1.827              2.055
 Vibration     9          0.668              1.747              1.668
 Vibration    10          0.673              1.731              1.607
 Vibration    11          0.693              1.671              1.408
 Vibration    12          0.755              1.499              1.014
 Vibration    13          0.773              1.451              0.930
 Vibration    14          0.784              1.423              0.886
 Vibration    15          0.786              1.418              0.878
 Vibration    16          0.796              1.393              0.841
 Vibration    17          0.837              1.294              0.709
 Vibration    18          0.838              1.291              0.706
 Vibration    19          0.874              1.208              0.612
 Vibration    20          0.894              1.165              0.568
 Vibration    21          0.909              1.132              0.537
 Vibration    22          0.919              1.112              0.518

                           ! Non-Optimized Parameters !
 Normal termination of Gaussian 16 at Mon Sep 18 09:18:58 2023.
