 Gaussian 16, Revision B.01,
 Gaussian 16:  EM64L-G16RevB.01 20-Dec-2017

 ----------------------------------------------------------------------
 # opt=cartesian freq b3lyp/6-31+g(d) nosymm empiricaldispersion=gd3 sc
 f=maxcycle=1000 volume
 ----------------------------------------------------------------------

 -------------------
 Title Card Required
 -------------------
 Symbolic Z-matrix:
 Charge =  0 Multiplicity = 1

 SCF Done:  E(RB3LYP) =  -465.683534606     A.U. after   14 cycles
 SCF Done:  E(RB3LYP) =  -465.694393482     A.U. after   13 cycles
 SCF Done:  E(RB3LYP) =  -465.694929212     A.U. after   11 cycles
 SCF Done:  E(RB3LYP) =  -465.694957453     A.U. after   12 cycles
 SCF Done:  E(RB3LYP) =  -465.694962814     A.U. after   11 cycles
 SCF Done:  E(RB3LYP) =  -465.694964038     A.U. after   11 cycles
 SCF Done:  E(RB3LYP) =  -465.694965956     A.U. after   12 cycles
 SCF Done:  E(RB3LYP) =  -465.694967698     A.U. after   10 cycles
 SCF Done:  E(RB3LYP) =  -465.694957568     A.U. after   13 cycles
 SCF Done:  E(RB3LYP) =  -465.694969641     A.U. after   11 cycles
 SCF Done:  E(RB3LYP) =  -465.694982122     A.U. after   10 cycles
 SCF Done:  E(RB3LYP) =  -465.694982165     A.U. after    9 cycles
 SCF Done:  E(RB3LYP) =  -465.694980778     A.U. after   10 cycles
 SCF Done:  E(RB3LYP) =  -465.694982298     A.U. after    9 cycles
 SCF Done:  E(RB3LYP) =  -465.694982176     A.U. after   10 cycles
 SCF Done:  E(RB3LYP) =  -465.694980957     A.U. after   11 cycles
 SCF Done:  E(RB3LYP) =  -465.694982187     A.U. after   11 cycles
 SCF Done:  E(RB3LYP) =  -465.694982315     A.U. after    6 cycles
 SCF Done:  E(RB3LYP) =  -465.694982353     A.U. after   10 cycles
 Optimization completed.
    -- Stationary point found.
 Normal termination of Gaussian 16 at Mon Sep 18 07:47:37 2023.

 ---------------------------------------------------------------------
 #N Geom=AllCheck Guess=TCheck SCRF=Check GenChk RB3LYP/6-31+G(d) Freq
 ---------------------------------------------------------------------

 Structure from the checkpoint file:  "molecule_34a.chk"
 -------------------
 Title Card Required
 -------------------
 Charge =  0 Multiplicity = 1

                          Input orientation:
 ---------------------------------------------------------------------
 Center     Atomic      Atomic             Coordinates (Angstroms)
 Number     Number       Type             X           Y           Z
 ---------------------------------------------------------------------
      1          6           0        0.135790   -0.073271   -0.023750
      2          6           0        0.095549   -0.049129    1.189918
      3          6           0        0.044805   -0.028877    2.619307
      4          6           0       -1.168474    0.224188    3.290847
      5          6           0        1.206951   -0.262342    3.382072
      6          6           0       -1.214322    0.242934    4.684721
      7          1           0       -2.067607    0.404589    2.708730
      8          6           0        1.153677   -0.241868    4.775689
      9          1           0        2.144951   -0.458322    2.870512
     10          6           0       -0.055328    0.010389    5.432654
     11          1           0       -2.157308    0.439455    5.188695
     12          1           0        2.058230   -0.423646    5.350615
     13          1           0       -0.093989    0.025596    6.518803
     14          6           0        0.198130   -0.063918   -1.485698
     15          6           0        0.702748    1.276365   -2.064839
     16          1           0       -0.798718   -0.283385   -1.894852
     17          1           0        0.854810   -0.876795   -1.828587
     18          1           0        0.044102    2.085292   -1.721069
     19          1           0        1.699147    1.490552   -1.655218
     20          6           0        0.760478    1.267174   -3.596963
     21          1           0        1.414986    0.448818   -3.931497
     22          1           0       -0.239599    1.044548   -3.997364
     23          6           0        1.261619    2.594888   -4.177505
     24          1           0        2.272506    2.825737   -3.817585
     25          1           0        1.294765    2.565936   -5.273183
     26          1           0        0.607104    3.425541   -3.883740
 ---------------------------------------------------------------------

 SCF Done:  E(RB3LYP) =  -465.694982353     A.U. after    1 cycles

 Alpha  occ. eigenvalues --  -10.22003 -10.21300 -10.20064 -10.20062 -10.20016
 Alpha  occ. eigenvalues --  -10.19973 -10.19943 -10.19268 -10.19063 -10.19054
 Alpha  occ. eigenvalues --  -10.18503 -10.18146  -0.86483  -0.81648  -0.78330
 Alpha  occ. eigenvalues --   -0.75792  -0.75293  -0.70990  -0.65323  -0.61687
 Alpha  occ. eigenvalues --   -0.61192  -0.58932  -0.54099  -0.49087  -0.48341
 Alpha  occ. eigenvalues --   -0.46740  -0.45882  -0.43872  -0.43615  -0.43177
 Alpha  occ. eigenvalues --   -0.42801  -0.39114  -0.38044  -0.36992  -0.36383
 Alpha  occ. eigenvalues --   -0.35390  -0.35271  -0.34173  -0.33537  -0.30202
 Alpha  occ. eigenvalues --   -0.26293  -0.25975  -0.22848
 Alpha virt. eigenvalues --   -0.03515  -0.01539   0.00461   0.01370   0.01995
 Alpha virt. eigenvalues --    0.02481   0.02597   0.03218   0.04224   0.04897
 Alpha virt. eigenvalues --    0.04916   0.05642   0.05892   0.06341   0.06684

 Mulliken charges:
               1
     1  C    0.580749
     2  C    0.039853
     3  C    0.160004
     4  C   -0.257282
     5  C   -0.245268
     6  C   -0.057234
     7  H    0.189818
     8  C   -0.065393
     9  H    0.189754
    10  C   -0.197505
    11  H    0.180764
    12  H    0.180725
    13  H    0.179174
    14  C   -1.304596
    15  C   -0.306135
    16  H    0.226520
    17  H    0.226933
    18  H    0.206240
    19  H    0.205997
    20  C   -0.212882
    21  H    0.192772
    22  H    0.192782
    23  C   -0.907298
    24  H    0.201542
    25  H    0.198322
    26  H    0.201646
 Sum of Mulliken charges =   0.00000

 Dipole moment (field-independent basis, Debye):
    X=              0.0831    Y=              0.1773    Z=             -0.6153  Tot=              0.6457
 Quadrupole moment (field-independent basis, Debye-Ang):
   XX=            -69.4451   YY=            -77.8438   ZZ=            -63.8005
   XY=             -1.8818   XZ=             -0.3673   YZ=             -0.1351

  Exact polarizability: 124.429  -4.273  96.498  -7.676  -9.603 225.686
 Approx polarizability: 197.164 -13.479 133.143  -4.029   1.302 305.836

                      1                      2                      3
                      A                      A                      A
 Frequencies --      9.5209                42.8254                58.7760
 Red. masses --      3.0968                 4.4777                 1.9217
 Frc consts  --      0.0002                 0.0048                 0.0039
 IR Inten    --      0.0011                 0.5727                 0.5967

                      4                      5                      6
                      A                      A                      A
 Frequencies --    109.0695               123.3392               127.1767
 Red. masses --      3.1061                 2.0076                 4.3763
 Frc consts  --      0.0218                 0.0180                 0.0417
 IR Inten    --      0.7775                 0.3458                 0.9055

                      7                      8                      9
                      A                      A                      A
 Frequencies --    234.4960               253.1165               292.7045
 Red. masses --      3.4773                 1.1419                 4.7161
 Frc consts  --      0.1127                 0.0431                 0.2381
 IR Inten    --      0.4098                 0.0448                 1.1448

                     10                     11                     12
                      A                      A                      A
 Frequencies --    309.4642               376.8993               413.3338
 Red. masses --      3.4082                 4.0872                 2.9215
 Frc consts  --      0.1923                 0.3421                 0.2941
 IR Inten    --      2.8189                 0.7709                 0.0025

                     13                     14                     15
                      A                      A                      A
 Frequencies --    454.8711               516.0740               524.3782
 Red. masses --      3.8893                 4.9805                 6.3778
 Frc consts  --      0.4741                 0.7815                 1.0333
 IR Inten    --      1.5945                 0.8728                 0.6142

                     16                     17                     18
                      A                      A                      A
 Frequencies --    568.5151               635.1744               703.1736
 Red. masses --      4.3960                 6.5707                 1.9053
 Frc consts  --      0.8371                 1.5619                 0.5550
 IR Inten    --     11.6446                 0.0026                38.0888

                     19                     20                     21
                      A                      A                      A
 Frequencies --    731.6025               749.7768               770.6378
 Red. masses --      5.5048                 1.0792                 1.7987
 Frc consts  --      1.7360                 0.3575                 0.6294
 IR Inten    --      3.3227                 2.4970                44.3947

                     22                     23                     24
                      A                      A                      A
 Frequencies --    809.4034               854.1711               914.2333
 Red. masses --      1.1933                 1.2475                 1.8979
 Frc consts  --      0.4606                 0.5363                 0.9346
 IR Inten    --      0.2123                 0.0029                 1.1503

                     25                     26                     27
                      A                      A                      A
 Frequencies --    928.7975               950.2040               976.6853
 Red. masses --      1.4179                 1.2419                 5.1837
 Frc consts  --      0.7207                 0.6606                 2.9134
 IR Inten    --      2.7485                 0.3278                 0.0426

                     28                     29                     30
                      A                      A                      A
 Frequencies --    978.5532              1000.4366              1013.0252
 Red. masses --      1.3635                 1.2789                 6.1147
 Frc consts  --      0.7692                 0.7542                 3.6971
 IR Inten    --      0.0004                 0.0324                 0.4285

                     31                     32                     33
                      A                      A                      A
 Frequencies --   1026.0326              1057.1233              1064.0859
 Red. masses --      3.9178                 2.0273                 2.5772
 Frc consts  --      2.4300                 1.3348                 1.7193
 IR Inten    --      8.4087                 2.0436                 0.8642

                     34                     35                     36
                      A                      A                      A
 Frequencies --   1108.0216              1130.2748              1143.7118
 Red. masses --      1.6224                 2.0933                 1.4362
 Frc consts  --      1.1735                 1.5756                 1.1068
 IR Inten    --      5.4525                 7.1899                 0.1393

                     37                     38                     39
                      A                      A                      A
 Frequencies --   1199.2180              1216.0493              1252.6722
 Red. masses --      1.1076                 1.1383                 1.3687
 Frc consts  --      0.9385                 0.9918                 1.2654
 IR Inten    --      0.0001                 0.0034                 0.0429

                     40                     41                     42
                      A                      A                      A
 Frequencies --   1283.5852              1300.7147              1325.1278
 Red. masses --      1.8769                 1.9122                 3.2284
 Frc consts  --      1.8220                 1.9061                 3.3400
 IR Inten    --      0.8956                11.4942                 0.1155

                     43                     44                     45
                      A                      A                      A
 Frequencies --   1329.8637              1345.0971              1363.0396
 Red. masses --      1.1711                 1.0580                 1.6820
 Frc consts  --      1.2203                 1.1279                 1.8412
 IR Inten    --      0.6486                 0.2214                 0.2557

                     46                     47                     48
                      A                      A                      A
 Frequencies --   1375.3188              1415.5975              1437.1062
 Red. masses --      1.4392                 1.5235                 1.2353
 Frc consts  --      1.6040                 1.7988                 1.5031
 IR Inten    --      6.3107                 3.0820                 3.2235

                     49                     50                     51
                      A                      A                      A
 Frequencies --   1481.5952              1497.5988              1513.0013
 Red. masses --      2.1795                 1.0846                 1.0669
 Frc consts  --      2.8188                 1.4332                 1.4390
 IR Inten    --      3.1743                 4.4173                 1.6899

                     52                     53                     54
                      A                      A                      A
 Frequencies --   1519.6209              1523.3841              1531.0211
 Red. masses --      1.0679                 1.0395                 1.0866
 Frc consts  --      1.4530                 1.4214                 1.5006
 IR Inten    --      1.1807                 8.9223                 7.3538

                     55                     56                     57
                      A                      A                      A
 Frequencies --   1535.4240              1618.2892              1650.7427
 Red. masses --      2.2378                 5.0447                 5.3555
 Frc consts  --      3.1083                 7.7839                 8.5982
 IR Inten    --     20.5445                 1.4387                13.8073

                     58                     59                     60
                      A                      A                      A
 Frequencies --   2330.7096              3014.2322              3017.4251
 Red. masses --     11.9249                 1.0587                 1.0583
 Frc consts  --     38.1664                 5.6674                 5.6770
 IR Inten    --      9.4661                 3.6022                54.1271

                     61                     62                     63
                      A                      A                      A
 Frequencies --   3033.0121              3038.5409              3039.4346
 Red. masses --      1.0387                 1.0586                 1.0984
 Frc consts  --      5.6298                 5.7587                 5.9785
 IR Inten    --     26.4964                53.0111                13.3326

                     64                     65                     66
                      A                      A                      A
 Frequencies --   3043.9503              3080.7019              3098.4470
 Red. masses --      1.1031                 1.1057                 1.1029
 Frc consts  --      6.0218                 6.1827                 6.2383
 IR Inten    --      0.1304                24.5582                76.5838

                     67                     68                     69
                      A                      A                      A
 Frequencies --   3102.0817              3177.4341              3186.1243
 Red. masses --      1.1016                 1.0854                 1.0885
 Frc consts  --      6.2457                 6.4564                 6.5105
 IR Inten    --     49.1752                 1.3070                 6.3296

                     70                     71                     72
                      A                      A                      A
 Frequencies --   3197.9619              3205.3879              3210.1982
 Red. masses --      1.0920                 1.0941                 1.0973
 Frc consts  --      6.5798                 6.6234                 6.6628
 IR Inten    --     24.1591                28.1916                 8.4747

 - Thermochemistry -
 -------------------
 Temperature   298.150 Kelvin.  Pressure   1.00000 Atm.
 Atom     1 has atomic number  6 and mass  12.00000

 Molecular mass:   158.10955 amu.
 Principal axes and moments of inertia in atomic units:
                           1         2         3
     Eigenvalues --   556.123086774.036596916.09474
           X           -0.11138   0.99378  -0.00125
           Y           -0.19578  -0.02071   0.98043
           Z            0.97430   0.10944   0.19687
 This molecule is an asymmetric top.
 Rotational symmetry number  1.
 Warning -- assumption of classical behavior for rotation
           may cause significant error
 Rotational temperatures (Kelvin)      0.15575     0.01279     0.01252
 Rotational constants (GHZ):           3.24522     0.26642     0.26095
 Zero-point vibrational energy     588858.1 (Joules/Mol)
                                  140.74047 (Kcal/Mol)
 Warning -- explicit consideration of  16 degrees of freedom as
           vibrations may cause significant error
 Vibrational temperatures:     13.70    61.62    84.57   156.93   177.46
          (Kelvin)            182.98   337.39   364.18   421.14   445.25
                              542.27   594.70   654.46   742.52   754.46
                              817.97   913.87  1011.71  1052.61  1078.76
                             1108.78  1164.55  1228.96  1315.38  1336.33
                             1367.13  1405.23  1407.92  1439.41  1457.52
                             1476.23  1520.96  1530.98  1594.20  1626.21
                             1645.55  1725.41  1749.62  1802.32  1846.79
                             1871.44  1906.56  1913.38  1935.29  1961.11
                             1978.78  2036.73  2067.68  2131.68  2154.71
                             2176.87  2186.40  2191.81  2202.80  2209.13
                             2328.36  2375.05  3353.37  4336.81  4341.40
                             4363.83  4371.78  4373.07  4379.57  4432.44
                             4457.97  4463.20  4571.62  4584.12  4601.15
                             4611.84  4618.76

 Zero-point correction=                           0.224284 (Hartree/Particle)
 Thermal correction to Energy=                    0.236410
 Thermal correction to Enthalpy=                  0.237354
 Thermal correction to Gibbs Free Energy=         0.183190
 Sum of electronic and zero-point Energies=           -465.470698
 Sum of electronic and thermal Energies=              -465.458572
 Sum of electronic and thermal Enthalpies=            -465.457628
 Sum of electronic and thermal Free Energies=         -465.511792

                     E (Thermal)             CV                S
                      KCal/Mol        Cal/Mol-Kelvin    Cal/Mol-Kelvin
 Total                  148.350             44.575            113.998
 Electronic               0.000              0.000              0.000
 Translational            0.889              2.981             41.084
 Rotational               0.889              2.981             31.633
 Vibrational            146.572             38.614             41.281
 Vibration     1          0.593              1.987              8.109
 Vibration     2          0.595              1.980              5.124
 Vibration     3          0.596              1.974              4.498
 Vibration     4          0.606              1.942              3.285
 Vibration     5          0.610              1.930              3.047
 Vibration     6          0.611              1.926              2.988
 Vibration     7          0.654              1.788              1.844
 Vibration     8          0.664              1.758              1.709
 Vibration     9          0.688              1.687              1.458
 Vibration    10          0.699              1.656              1.365
 Vibration    11          0.747              1.519              1.052
 Vibration    12          0.777              1.441              0.915
 Vibration    13          0.813              1.350              0.781
 Vibration    14          0.871              1.214              0.619
 Vibration    15          0.879              1.196              0.600
 Vibration    16          0.925              1.099              0.507

 Normal termination of Gaussian 16 at Mon Sep 18 07:49:55 2023.
