 Gaussian 16, Revision B.01,
 Gaussian 16:  EM64L-G16RevB.01 20-Dec-2017

 ---------------------------------------------------------
 # opt freq b3lyp/6-31+g(d) empiricaldispersion=gd3 volume
 ---------------------------------------------------------

 -------------------
 Title Card Required
 -------------------
 Symbolic Z-matrix:
 Charge =  0 Multiplicity = 1

 SCF Done:  E(RB3LYP) =  -618.113864008     A.U. after   14 cycles
 SCF Done:  E(RB3LYP) =  -618.137010371     A.U. after   13 cycles
 SCF Done:  E(RB3LYP) =  -618.133304096     A.U. after   16 cycles
 SCF Done:  E(RB3LYP) =  -618.138591459     A.U. after   14 cycles
 SCF Done:  E(RB3LYP) =  -618.139798842     A.U. after   15 cycles
 SCF Done:  E(RB3LYP) =  -618.137712414     A.U. after   15 cycles
 SCF Done:  E(RB3LYP) =  -618.139905257     A.U. after   13 cycles
 SCF Done:  E(RB3LYP) =  -618.139957371     A.U. after   13 cycles
 SCF Done:  E(RB3LYP) =  -618.139974040     A.U. after   13 cycles
 SCF Done:  E(RB3LYP) =  -618.139974844     A.U. after   11 cycles
 SCF Done:  E(RB3LYP) =  -618.139974913     A.U. after    9 cycles
 Optimization completed.
    -- Stationary point found.
 Normal termination of Gaussian 16 at Sun Sep 17 15:45:53 2023.

 ---------------------------------------------------------------------
 #N Geom=AllCheck Guess=TCheck SCRF=Check GenChk RB3LYP/6-31+G(d) Freq
 ---------------------------------------------------------------------

 Structure from the checkpoint file:  "molecule_7.chk"
 -------------------
 Title Card Required
 -------------------
 Charge =  0 Multiplicity = 1

                         Standard orientation:
 ---------------------------------------------------------------------
 Center     Atomic      Atomic             Coordinates (Angstroms)
 Number     Number       Type             X           Y           Z
 ---------------------------------------------------------------------
      1          6           0        4.148535   -1.199757    0.000983
      2          6           0        2.757106   -1.207310   -0.000317
      3          6           0        2.033656    0.004512   -0.000490
      4          6           0        2.756345    1.213567    0.000608
      5          6           0        4.150731    1.205370    0.001891
      6          6           0        4.872964    0.003882    0.002266
      7          1           0        4.686054   -2.146181    0.000847
      8          1           0        2.214651   -2.148486   -0.001411
      9          1           0        2.215434    2.155589    0.000243
     10          1           0        4.687230    2.151835    0.002523
     11          6           0        0.608813    0.003628   -0.001848
     12          6           0       -0.608894    0.001920   -0.003335
     13          6           0       -2.033711    0.000655   -0.004256
     14          6           0       -2.755764   -1.210386   -0.006230
     15          6           0       -2.757821    1.210434   -0.007104
     16          6           0       -4.148656   -1.203747   -0.009331
     17          1           0       -2.213261   -2.151515   -0.008978
     18          6           0       -4.150731    1.201405   -0.010187
     19          1           0       -2.216939    2.152488   -0.010537
     20          6           0       -4.873084   -0.001774   -0.008453
     21          1           0       -4.684752   -2.150694   -0.014100
     22          1           0       -4.688422    2.147437   -0.015625
     23          6           0       -6.383456   -0.003176    0.024452
     24          1           0       -6.753929   -0.006408    1.058890
     25          1           0       -6.796906    0.884548   -0.467285
     26          1           0       -6.795344   -0.888922   -0.472179
     27          6           0        6.383735   -0.009762    0.005754
     28          1           0        6.778098   -0.548111   -0.865605
     29          1           0        6.773879   -0.513119    0.899821
     30          1           0        6.795609    1.004769   -0.013018
 ---------------------------------------------------------------------

 SCF Done:  E(RB3LYP) =  -618.139974913     A.U. after    1 cycles

 The electronic state is 1-A.
 Alpha  occ. eigenvalues --  -10.21889 -10.21889 -10.20868 -10.20867 -10.20149
 Alpha  occ. eigenvalues --  -10.20132 -10.20131 -10.20112 -10.19747 -10.19732
 Alpha  occ. eigenvalues --  -10.19731 -10.19717 -10.19326 -10.19195 -10.19188
 Alpha  occ. eigenvalues --  -10.19107  -0.86942  -0.86713  -0.80390  -0.78989
 Alpha  occ. eigenvalues --   -0.75320  -0.75306  -0.74342  -0.70736  -0.68126
 Alpha  occ. eigenvalues --   -0.61591  -0.61479  -0.61225  -0.59359  -0.54793
 Alpha  occ. eigenvalues --   -0.52541  -0.47466  -0.47119  -0.47061  -0.46707
 Alpha  occ. eigenvalues --   -0.43711  -0.42772  -0.42725  -0.42710  -0.42707
 Alpha  occ. eigenvalues --   -0.42603  -0.39616  -0.39414  -0.38139  -0.36758
 Alpha  occ. eigenvalues --   -0.36157  -0.35821  -0.35059  -0.34809  -0.31125
 Alpha  occ. eigenvalues --   -0.27099  -0.26465  -0.26019  -0.26006  -0.21034
 Alpha virt. eigenvalues --   -0.05282  -0.01763  -0.01583  -0.00382   0.00374
 Alpha virt. eigenvalues --    0.00787   0.01664   0.01979   0.02759   0.03005
 Alpha virt. eigenvalues --    0.04438   0.04593   0.04642   0.04663   0.05357

 Mulliken charges:
               1
     1  C   -0.016651
     2  C    0.009946
     3  C    0.105242
     4  C   -0.215208
     5  C   -0.793909
     6  C    0.313395
     7  H    0.177409
     8  H    0.191438
     9  H    0.191269
    10  H    0.175577
    11  C   -0.050214
    12  C   -0.057698
    13  C    0.103340
    14  C   -0.157243
    15  C   -0.150338
    16  C   -0.400146
    17  H    0.191347
    18  C   -0.410798
    19  H    0.191402
    20  C    0.433088
    21  H    0.175982
    22  H    0.175987
    23  C   -0.743951
    24  H    0.227896
    25  H    0.209155
    26  H    0.209265
    27  C   -0.739428
    28  H    0.223685
    29  H    0.224641
    30  H    0.205522
 Sum of Mulliken charges =   0.00000

 Dipole moment (field-independent basis, Debye):
    X=              0.0015    Y=             -0.0531    Z=              0.0488  Tot=              0.0722
 Quadrupole moment (field-independent basis, Debye-Ang):
   XX=            -71.1425   YY=            -86.2765   ZZ=           -101.8460
   XY=             -0.2956   XZ=             -0.2416   YZ=              0.0000

  Exact polarizability: 395.232  -0.642 172.168  -0.615  -0.001 101.242
 Approx polarizability: 522.795  -0.858 292.840  -0.706  -0.002 150.838

 ******    1 imaginary frequencies (negative Signs) ******

                      1                      2                      3
                      A                      A                      A
 Frequencies --    -23.0307                18.1553                23.9512
 Red. masses --      1.0490                 1.5273                 1.6861
 Frc consts  --      0.0003                 0.0003                 0.0006
 IR Inten    --      0.1909                 0.1708                 0.2134

                      4                      5                      6
                      A                      A                      A
 Frequencies --     35.2009                35.3422                92.2486
 Red. masses --      4.3152                 4.4481                 4.0464
 Frc consts  --      0.0032                 0.0033                 0.0203
 IR Inten    --      0.5626                 1.0971                 0.0027

                      7                      8                      9
                      A                      A                      A
 Frequencies --    129.6873               180.7027               228.1841
 Red. masses --      5.0108                 4.2148                 5.8224
 Frc consts  --      0.0497                 0.0811                 0.1786
 IR Inten    --      0.0008                 0.1438                 0.0002

                     10                     11                     12
                      A                      A                      A
 Frequencies --    261.0604               332.9764               350.1579
 Red. masses --      4.3235                 2.9128                 2.7527
 Frc consts  --      0.1736                 0.1903                 0.1989
 IR Inten    --      0.0043                 0.0801                 0.0740

                     13                     14                     15
                      A                      A                      A
 Frequencies --    376.4034               413.0058               415.0673
 Red. masses --      4.5093                 2.9502                 2.9523
 Frc consts  --      0.3764                 0.2965                 0.2997
 IR Inten    --      7.8058                 0.0116                 0.0263

                     16                     17                     18
                      A                      A                      A
 Frequencies --    446.9227               475.9610               486.5905
 Red. masses --      4.0890                 6.3843                 5.6026
 Frc consts  --      0.4812                 0.8521                 0.7816
 IR Inten    --      0.0955                 8.1689                 1.9578

                     19                     20                     21
                      A                      A                      A
 Frequencies --    535.0983               548.4021               555.0114
 Red. masses --      2.7121                 7.6263                 3.6111
 Frc consts  --      0.4575                 1.3513                 0.6554
 IR Inten    --     29.1864                 0.0085                 0.0657

                     22                     23                     24
                      A                      A                      A
 Frequencies --    624.4849               657.3613               661.0774
 Red. masses --      4.8967                 6.9999                 7.1096
 Frc consts  --      1.1251                 1.7822                 1.8306
 IR Inten    --      0.0600                 0.2305                 0.0018

                     25                     26                     27
                      A                      A                      A
 Frequencies --    715.8864               719.8319               763.6453
 Red. masses --      3.3632                 3.2920                 4.5836
 Frc consts  --      1.0155                 1.0050                 1.5749
 IR Inten    --      0.1461                 3.0004                 1.2185

                     28                     29                     30
                      A                      A                      A
 Frequencies --    816.7673               830.2129               834.1159
 Red. masses --      5.0498                 1.4788                 1.5014
 Frc consts  --      1.9848                 0.6005                 0.6155
 IR Inten    --      0.6107                 0.0914                92.7832

                     31                     32                     33
                      A                      A                      A
 Frequencies --    847.3098               847.5232               869.6081
 Red. masses --      1.2517                 1.2495                 6.3655
 Frc consts  --      0.5295                 0.5288                 2.8362
 IR Inten    --      0.1260                 0.0708                 0.1214

                     34                     35                     36
                      A                      A                      A
 Frequencies --    965.3145               965.9424               974.6297
 Red. masses --      1.2932                 1.2951                 1.3567
 Frc consts  --      0.7100                 0.7120                 0.7593
 IR Inten    --      0.1665                 0.9864                 0.0019

                     37                     38                     39
                      A                      A                      A
 Frequencies --    974.8703              1018.3513              1020.7336
 Red. masses --      1.3538                 1.4182                 1.4044
 Frc consts  --      0.7580                 0.8665                 0.8621
 IR Inten    --      0.0151                 6.4641                 0.0519

                     40                     41                     42
                      A                      A                      A
 Frequencies --   1038.2962              1039.2450              1070.1491
 Red. masses --      2.9875                 2.7945                 1.5241
 Frc consts  --      1.8976                 1.7782                 1.0284
 IR Inten    --      0.2071                 4.6229                17.6575

                     43                     44                     45
                      A                      A                      A
 Frequencies --   1071.4360              1152.8018              1154.0889
 Red. masses --      1.5160                 1.3592                 1.3483
 Frc consts  --      1.0254                 1.0642                 1.0580
 IR Inten    --      3.8584                 2.2672                 9.4612

                     46                     47                     48
                      A                      A                      A
 Frequencies --   1161.3118              1223.8778              1226.7523
 Red. masses --      4.2152                 1.1321                 1.1830
 Frc consts  --      3.3494                 0.9991                 1.0490
 IR Inten    --      0.0533                 5.2093                 0.1737

                     49                     50                     51
                      A                      A                      A
 Frequencies --   1236.7604              1238.2549              1321.8926
 Red. masses --      3.2031                 2.8352                 4.2362
 Frc consts  --      2.8866                 2.5612                 4.3613
 IR Inten    --      3.9708                 0.2131                 0.4639

                     52                     53                     54
                      A                      A                      A
 Frequencies --   1325.2899              1348.4565              1349.2271
 Red. masses --      4.6938                 1.5246                 1.4763
 Frc consts  --      4.8573                 1.6334                 1.5834
 IR Inten    --      0.6810                 1.6847                 0.2808

                     55                     56                     57
                      A                      A                      A
 Frequencies --   1350.4420              1438.3836              1438.6386
 Red. masses --      3.9960                 1.2341                 1.2370
 Frc consts  --      4.2937                 1.5044                 1.5084
 IR Inten    --      4.9244                 0.9011                 0.1863

                     58                     59                     60
                      A                      A                      A
 Frequencies --   1446.9201              1448.6862              1507.8881
 Red. masses --      2.5216                 2.5123                 1.0437
 Frc consts  --      3.1104                 3.1065                 1.3982
 IR Inten    --      0.3242                 2.0799                 7.0908

                     61                     62                     63
                      A                      A                      A
 Frequencies --   1510.6807              1512.6666              1514.7425
 Red. masses --      1.1061                 1.0523                 1.1138
 Frc consts  --      1.4873                 1.4187                 1.5057
 IR Inten    --      8.6072                 7.0081                10.3118

                     64                     65                     66
                      A                      A                      A
 Frequencies --   1544.2216              1563.5622              1599.9371
 Red. masses --      2.3206                 2.7590                 5.0385
 Frc consts  --      3.2603                 3.9740                 7.5991
 IR Inten    --      0.0751                93.6261                 0.5787

                     67                     68                     69
                      A                      A                      A
 Frequencies --   1601.8501              1656.4470              1664.6537
 Red. masses --      5.1205                 5.4262                 5.6413
 Frc consts  --      7.7411                 8.7720                 9.2103
 IR Inten    --      2.5023                 0.0059                 0.5982

                     70                     71                     72
                      A                      A                      A
 Frequencies --   2304.2295              3032.2684              3035.2734
 Red. masses --     11.9974                 1.0406                 1.0372
 Frc consts  --     37.5310                 5.6372                 5.6301
 IR Inten    --      0.0000                53.2481                51.3325

                     73                     74                     75
                      A                      A                      A
 Frequencies --   3085.5464              3088.1448              3114.2592
 Red. masses --      1.1007                 1.0952                 1.1027
 Frc consts  --      6.1743                 6.1539                 6.3009
 IR Inten    --     16.6229                22.1085                17.0152

                     76                     77                     78
                      A                      A                      A
 Frequencies --   3115.0151              3170.6023              3172.5976
 Red. masses --      1.1009                 1.0887                 1.0886
 Frc consts  --      6.2938                 6.4482                 6.4560
 IR Inten    --     19.7597                22.1077                14.4243

                     79                     80                     81
                      A                      A                      A
 Frequencies --   3173.3243              3175.2025              3202.3233
 Red. masses --      1.0887                 1.0886                 1.0930
 Frc consts  --      6.4591                 6.4664                 6.6042
 IR Inten    --     32.5517                22.5531                 0.2570

                     82                     83                     84
                      A                      A                      A
 Frequencies --   3202.5617              3204.1591              3204.3660
 Red. masses --      1.0931                 1.0939                 1.0940
 Frc consts  --      6.6055                 6.6171                 6.6182
 IR Inten    --     42.1590                 0.3338                 0.8707

 - Thermochemistry -
 -------------------
 Temperature   298.150 Kelvin.  Pressure   1.00000 Atm.
 Atom     1 has atomic number  6 and mass  12.00000

 Molecular mass:   206.10955 amu.
 Principal axes and moments of inertia in atomic units:
                           1         2         3
     Eigenvalues --   654.79767********************
           X            1.00000  -0.00008  -0.00013
           Y            0.00008   1.00000   0.00000
           Z            0.00013   0.00000   1.00000
 This molecule is an asymmetric top.
 Rotational symmetry number  1.
 Warning -- assumption of classical behavior for rotation
           may cause significant error
 Rotational temperatures (Kelvin)      0.13228     0.00749     0.00710
 Rotational constants (GHZ):           2.75618     0.15612     0.14803
    1 imaginary frequencies ignored.
 Zero-point vibrational energy     646493.2 (Joules/Mol)
                                  154.51559 (Kcal/Mol)
 Warning -- explicit consideration of  20 degrees of freedom as
           vibrations may cause significant error
 Vibrational temperatures:     26.12    34.46    50.65    50.85   132.73
          (Kelvin)            186.59   259.99   328.31   375.61   479.08
                              503.80   541.56   594.22   597.19   643.02
                              684.80   700.10   769.89   789.03   798.54
                              898.49   945.80   951.14  1030.00  1035.68
                             1098.72  1175.15  1194.49  1200.11  1219.09
                             1219.40  1251.17  1388.87  1389.78  1402.27
                             1402.62  1465.18  1468.61  1493.88  1495.24
                             1539.71  1541.56  1658.62  1660.48  1670.87
                             1760.89  1765.02  1779.42  1781.57  1901.91
                             1906.80  1940.13  1941.24  1942.98  2069.51
                             2069.88  2081.80  2084.34  2169.51  2173.53
                             2176.39  2179.38  2221.79  2249.62  2301.95
                             2304.71  2383.26  2395.07  3315.27  4362.76
                             4367.08  4439.41  4443.15  4480.72  4481.81
                             4561.79  4564.66  4565.71  4568.41  4607.43
                             4607.77  4610.07  4610.37

 Zero-point correction=                           0.246236 (Hartree/Particle)
 Thermal correction to Energy=                    0.260287
 Thermal correction to Enthalpy=                  0.261231
 Thermal correction to Gibbs Free Energy=         0.201871
 Sum of electronic and zero-point Energies=           -617.893739
 Sum of electronic and thermal Energies=              -617.879688
 Sum of electronic and thermal Enthalpies=            -617.878744
 Sum of electronic and thermal Free Energies=         -617.938104

                     E (Thermal)             CV                S
                      KCal/Mol        Cal/Mol-Kelvin    Cal/Mol-Kelvin
 Total                  163.333             53.493            124.934
 Electronic               0.000              0.000              0.000
 Translational            0.889              2.981             41.874
 Rotational               0.889              2.981             32.889
 Vibrational            161.555             47.531             50.170
 Vibration     1          0.593              1.986              6.826
 Vibration     2          0.593              1.985              6.276
 Vibration     3          0.594              1.982              5.512
 Vibration     4          0.594              1.982              5.504
 Vibration     5          0.602              1.955              3.612
 Vibration     6          0.612              1.924              2.951
 Vibration     7          0.630              1.866              2.321
 Vibration     8          0.651              1.798              1.893
 Vibration     9          0.669              1.744              1.655
 Vibration    10          0.715              1.610              1.246
 Vibration    11          0.727              1.575              1.165
 Vibration    12          0.747              1.520              1.054
 Vibration    13          0.777              1.442              0.916
 Vibration    14          0.778              1.438              0.909
 Vibration    15          0.806              1.368              0.805
 Vibration    16          0.833              1.303              0.721
 Vibration    17          0.843              1.280              0.693
 Vibration    18          0.890              1.172              0.576
 Vibration    19          0.904              1.143              0.547
 Vibration    20          0.910              1.129              0.534

                           ! Non-Optimized Parameters !
 Normal termination of Gaussian 16 at Sun Sep 17 15:50:25 2023.
