 Gaussian 16, Revision B.01,
 Gaussian 16:  EM64L-G16RevB.01 20-Dec-2017

 ----------------------------------------------------------------------
 # opt freq b3lyp/6-31+g(d) geom=connectivity empiricaldispersion=gd3 v
 olume
 ----------------------------------------------------------------------

 -------------
 ML molecule78
 -------------
 Symbolic Z-matrix:
 Charge =  0 Multiplicity = 1

 SCF Done:  E(RB3LYP) =  -758.983589315     A.U. after   16 cycles
 SCF Done:  E(RB3LYP) =  -759.018527436     A.U. after   17 cycles
 SCF Done:  E(RB3LYP) =  -759.018201673     A.U. after   17 cycles
 SCF Done:  E(RB3LYP) =  -759.059112022     A.U. after   15 cycles
 SCF Done:  E(RB3LYP) =  -759.069123584     A.U. after   17 cycles
 SCF Done:  E(RB3LYP) =  -759.053148734     A.U. after   17 cycles
 SCF Done:  E(RB3LYP) =  -759.072731424     A.U. after   16 cycles
 SCF Done:  E(RB3LYP) =  -759.079339336     A.U. after   17 cycles
 SCF Done:  E(RB3LYP) =  -759.086177696     A.U. after   15 cycles
 SCF Done:  E(RB3LYP) =  -759.082732384     A.U. after   17 cycles
 SCF Done:  E(RB3LYP) =  -759.099146477     A.U. after   14 cycles
 SCF Done:  E(RB3LYP) =  -759.099148643     A.U. after   13 cycles
 SCF Done:  E(RB3LYP) =  -759.099143382     A.U. after   14 cycles
 SCF Done:  E(RB3LYP) =  -759.099148222     A.U. after   14 cycles
 SCF Done:  E(RB3LYP) =  -759.099149622     A.U. after   13 cycles
 SCF Done:  E(RB3LYP) =  -759.099149805     A.U. after   11 cycles
 SCF Done:  E(RB3LYP) =  -759.099150486     A.U. after   13 cycles
 SCF Done:  E(RB3LYP) =  -759.099150157     A.U. after   13 cycles
 SCF Done:  E(RB3LYP) =  -759.099150383     A.U. after   11 cycles
 Optimization completed.
    -- Stationary point found.
 Normal termination of Gaussian 16 at Sat Sep 16 18:02:52 2023.

 ---------------------------------------------------------------------
 #N Geom=AllCheck Guess=TCheck SCRF=Check GenChk RB3LYP/6-31+G(d) Freq
 ---------------------------------------------------------------------

 Structure from the checkpoint file:  "molecule_78.chk"
 -------------
 ML molecule78
 -------------
 Charge =  0 Multiplicity = 1

                         Standard orientation:
 ---------------------------------------------------------------------
 Center     Atomic      Atomic             Coordinates (Angstroms)
 Number     Number       Type             X           Y           Z
 ---------------------------------------------------------------------
      1          6           0       -2.632938   -0.083133    0.003788
      2          6           0       -1.584504   -1.003089    0.025814
      3          6           0       -0.269448   -0.544144    0.025227
      4          6           0       -0.023469    0.835579    0.002198
      5          6           0       -1.084137    1.753892   -0.020761
      6          6           0       -2.393736    1.295388   -0.020214
      7          1           0       -1.801665   -2.064554    0.043054
      8          1           0       -0.859226    2.815241   -0.039288
      9          1           0       -3.228623    1.985698   -0.037925
     10          8           0        1.232870    1.384026    0.003862
     11          6           0        2.345722    0.552678    0.012836
     12          6           0        2.901899    0.126809   -1.195027
     13          6           0        2.950122    0.202350    1.216603
     14          6           0        4.104371   -0.579748    1.157002
     15          1           0        2.525073    0.538404    2.157816
     16          6           0        4.589185   -0.967341   -0.096402
     17          1           0        4.620778   -0.881843    2.063524
     18          1           0        5.486496   -1.576877   -0.176455
     19          1           0        0.552102   -1.250921    0.041220
     20          1           0        2.434048    0.408915   -2.135904
     21          7           0       -4.015266   -0.571403    0.006318
     22          8           0       -4.922090    0.265198   -0.014673
     23          8           0       -4.197041   -1.791738    0.029875
     24          7           0        4.007082   -0.624226   -1.254166
 ---------------------------------------------------------------------

 SCF Done:  E(RB3LYP) =  -759.099150383     A.U. after    1 cycles

 The electronic state is 1-A.
 Alpha  occ. eigenvalues --  -19.23364 -19.19529 -19.19518 -14.58352 -14.36548
 Alpha  occ. eigenvalues --  -10.30031 -10.28805 -10.26464 -10.25417 -10.25182
 Alpha  occ. eigenvalues --  -10.24164 -10.23908 -10.23768 -10.23360 -10.23185
 Alpha  occ. eigenvalues --  -10.22932  -1.23468  -1.12251  -1.06191  -0.97241
 Alpha  occ. eigenvalues --   -0.90658  -0.84365  -0.82014  -0.79566  -0.78657
 Alpha  occ. eigenvalues --   -0.71985  -0.67041  -0.66952  -0.64915  -0.61259
 Alpha  occ. eigenvalues --   -0.58743  -0.56618  -0.54371  -0.54127  -0.53282
 Alpha  occ. eigenvalues --   -0.52957  -0.50728  -0.48641  -0.47768  -0.46681
 Alpha  occ. eigenvalues --   -0.45022  -0.44623  -0.44052  -0.43689  -0.41637
 Alpha  occ. eigenvalues --   -0.40905  -0.38327  -0.37391  -0.32237  -0.32168
 Alpha  occ. eigenvalues --   -0.31733  -0.30290  -0.29525  -0.29044  -0.28639
 Alpha  occ. eigenvalues --   -0.26739
 Alpha virt. eigenvalues --   -0.10302  -0.06312  -0.04780  -0.04239  -0.01254
 Alpha virt. eigenvalues --   -0.01096   0.00337   0.01157   0.01804   0.02088
 Alpha virt. eigenvalues --    0.02757   0.03676   0.04083   0.04441   0.05142

 Mulliken charges:
               1
     1  C   -0.102260
     2  C   -0.683089
     3  C    0.851275
     4  C    0.208509
     5  C   -0.930920
     6  C    0.134920
     7  H    0.234242
     8  H    0.208101
     9  H    0.233127
    10  O   -0.329648
    11  C    0.130717
    12  C   -0.285978
    13  C    0.136192
    14  C   -0.003184
    15  H    0.205619
    16  C   -0.295194
    17  H    0.198230
    18  H    0.191101
    19  H    0.214856
    20  H    0.201693
    21  N   -0.336250
    22  O   -0.030901
    23  O   -0.033351
    24  N   -0.117809
 Sum of Mulliken charges =   0.00000

 Dipole moment (field-independent basis, Debye):
    X=              4.9760    Y=              1.1813    Z=              2.0698  Tot=              5.5173
 Quadrupole moment (field-independent basis, Debye-Ang):
   XX=           -117.1246   YY=            -91.0128   ZZ=            -90.7259
   XY=             -9.4240   XZ=             10.1147   YZ=             -2.1263

  Exact polarizability: 229.122 -12.246 136.845   3.082  -0.818 109.484
 Approx polarizability: 312.854 -26.385 255.580   3.691  -1.188 183.133

                      1                      2                      3
                      A                      A                      A
 Frequencies --      8.0485                38.0498                62.7323
 Red. masses --      5.4414                 6.3025                 6.7435
 Frc consts  --      0.0002                 0.0054                 0.0156
 IR Inten    --      1.3816                 0.6242                 0.3955

                      4                      5                      6
                      A                      A                      A
 Frequencies --     67.6760               102.0009               198.3640
 Red. masses --      5.7305                 8.3819                 6.9988
 Frc consts  --      0.0155                 0.0514                 0.1623
 IR Inten    --      0.0896                 3.2375                 1.6246

                      7                      8                      9
                      A                      A                      A
 Frequencies --    240.0569               286.9553               319.2434
 Red. masses --      5.5200                 6.6198                 6.2636
 Frc consts  --      0.1874                 0.3212                 0.3761
 IR Inten    --      0.0256                 1.2591                 0.8246

                     10                     11                     12
                      A                      A                      A
 Frequencies --    400.5104               406.2622               423.1482
 Red. masses --      6.5725                 5.5400                 3.5852
 Frc consts  --      0.6212                 0.5387                 0.3782
 IR Inten    --      3.1035                 3.1485                 2.5484

                     13                     14                     15
                      A                      A                      A
 Frequencies --    427.7026               499.6976               500.3934
 Red. masses --      3.1519                 4.7728                 3.2853
 Frc consts  --      0.3397                 0.7022                 0.4847
 IR Inten    --      0.4531                 4.5677                 5.7210

                     16                     17                     18
                      A                      A                      A
 Frequencies --    535.0090               616.0069               631.2779
 Red. masses --      6.9698                 7.2145                 7.1378
 Frc consts  --      1.1754                 1.6130                 1.6759
 IR Inten    --      1.3326                 4.4494                 1.6168

                     19                     20                     21
                      A                      A                      A
 Frequencies --    652.9312               665.6526               687.2672
 Red. masses --      7.6285                 6.3503                 3.9060
 Frc consts  --      1.9161                 1.6578                 1.0870
 IR Inten    --      5.8455                 7.4058                 5.0852

                     22                     23                     24
                      A                      A                      A
 Frequencies --    719.2221               751.0217               787.2645
 Red. masses --      2.1505                 6.6076                 4.4181
 Frc consts  --      0.6554                 2.1958                 1.6134
 IR Inten    --     26.9136                24.2345                 7.7287

                     25                     26                     27
                      A                      A                      A
 Frequencies --    829.4573               837.5782               860.0109
 Red. masses --      1.2508                 1.9658                 8.2107
 Frc consts  --      0.5070                 0.8126                 3.5780
 IR Inten    --      0.1095                16.1044                25.3661

                     28                     29                     30
                      A                      A                      A
 Frequencies --    861.6544               893.1253               939.3694
 Red. masses --      1.7315                 7.2947                 1.3423
 Frc consts  --      0.7574                 3.4283                 0.6979
 IR Inten    --     44.7306                49.8306                 1.3863

                     31                     32                     33
                      A                      A                      A
 Frequencies --    969.4808               979.8177               988.2065
 Red. masses --      1.4435                 1.3006                 1.3277
 Frc consts  --      0.7994                 0.7357                 0.7639
 IR Inten    --      2.6312                 1.9681                 0.0038

                     34                     35                     36
                      A                      A                      A
 Frequencies --    999.2116              1027.4274              1038.0079
 Red. masses --      1.3820                 2.8139                 3.9993
 Frc consts  --      0.8130                 1.7501                 2.5388
 IR Inten    --      0.1193                 0.3268                26.6535

                     37                     38                     39
                      A                      A                      A
 Frequencies --   1063.2617              1133.8665              1136.7274
 Red. masses --      2.5359                 3.0246                 1.4540
 Frc consts  --      1.6891                 2.2911                 1.1069
 IR Inten    --      0.4264                99.7594                15.9574

                     40                     41                     42
                      A                      A                      A
 Frequencies --   1151.3428              1207.1568              1227.0493
 Red. masses --      1.2523                 1.3339                 1.5089
 Frc consts  --      0.9781                 1.1453                 1.3386
 IR Inten    --     12.0274                66.3976                16.5318

                     43                     44                     45
                      A                      A                      A
 Frequencies --   1232.0271              1284.9759              1299.4985
 Red. masses --      2.7531                 4.7123                 6.1291
 Frc consts  --      2.4621                 4.5843                 6.0981
 IR Inten    --     30.3126               626.3053                64.1789

                     46                     47                     48
                      A                      A                      A
 Frequencies --   1333.5199              1357.8290              1373.4881
 Red. masses --      1.3297                 1.3369                 9.7457
 Frc consts  --      1.3932                 1.4523                10.8321
 IR Inten    --      2.6127                 2.5801               267.1162

                     49                     50                     51
                      A                      A                      A
 Frequencies --   1379.2650              1463.0695              1465.0487
 Red. masses --     10.9414                 2.9559                 2.5795
 Frc consts  --     12.2636                 3.7279                 3.2621
 IR Inten    --    176.5505                 5.8997                60.6982

                     52                     53                     54
                      A                      A                      A
 Frequencies --   1514.0683              1533.8344              1585.9624
 Red. masses --      2.2350                 2.3397                12.1028
 Frc consts  --      3.0186                 3.2432                17.9358
 IR Inten    --     81.9429               113.4338               192.1880

                     55                     56                     57
                      A                      A                      A
 Frequencies --   1625.9929              1629.2121              1646.6224
 Red. masses --      5.5936                 5.9207                 6.5690
 Frc consts  --      8.7133                 9.2593                10.4938
 IR Inten    --     10.6255                81.9284               100.3919

                     58                     59                     60
                      A                      A                      A
 Frequencies --   1656.2658              3184.7561              3187.9670
 Red. masses --      7.0432                 1.0881                 1.0924
 Frc consts  --     11.3836                 6.5022                 6.5412
 IR Inten    --    103.8250                18.1217                 5.2026

                     61                     62                     63
                      A                      A                      A
 Frequencies --   3204.3438              3218.1364              3219.0569
 Red. masses --      1.0914                 1.0971                 1.0907
 Frc consts  --      6.6026                 6.6943                 6.6590
 IR Inten    --     14.8780                 5.3061                 1.6607

                     64                     65                     66
                      A                      A                      A
 Frequencies --   3226.9867              3244.8783              3246.2451
 Red. masses --      1.0895                 1.0936                 1.0936
 Frc consts  --      6.6846                 6.7842                 6.7900
 IR Inten    --      1.8335                 1.7735                 2.4115

 - Thermochemistry -
 -------------------
 Temperature   298.150 Kelvin.  Pressure   1.00000 Atm.
 Atom     1 has atomic number  6 and mass  12.00000

 Molecular mass:   216.05349 amu.
 Principal axes and moments of inertia in atomic units:
                           1         2         3
     Eigenvalues --  1078.654337974.717938434.22483
           X            0.99996  -0.00823   0.00444
           Y            0.00829   0.99988  -0.01274
           Z           -0.00434   0.01278   0.99991
 This molecule is an asymmetric top.
 Rotational symmetry number  1.
 Warning -- assumption of classical behavior for rotation
           may cause significant error
 Rotational temperatures (Kelvin)      0.08030     0.01086     0.01027
 Rotational constants (GHZ):           1.67314     0.22631     0.21398
 Zero-point vibrational energy     462250.8 (Joules/Mol)
                                  110.48059 (Kcal/Mol)
 Warning -- explicit consideration of  17 degrees of freedom as
           vibrations may cause significant error
 Vibrational temperatures:     11.58    54.75    90.26    97.37   146.76
          (Kelvin)            285.40   345.39   412.86   459.32   576.25
                              584.52   608.82   615.37   718.95   719.95
                              769.76   886.30   908.27   939.42   957.73
                              988.82  1034.80  1080.55  1132.70  1193.40
                             1205.09  1237.36  1239.73  1285.01  1351.54
                             1394.87  1409.74  1421.81  1437.64  1478.24
                             1493.46  1529.80  1631.38  1635.50  1656.53
                             1736.83  1765.45  1772.61  1848.79  1869.69
                             1918.64  1953.61  1976.14  1984.45  2105.03
                             2107.88  2178.41  2206.85  2281.85  2339.44
                             2344.07  2369.12  2383.00  4582.15  4586.77
                             4610.34  4630.18  4631.50  4642.91  4668.66
                             4670.62

 Zero-point correction=                           0.176062 (Hartree/Particle)
 Thermal correction to Energy=                    0.188519
 Thermal correction to Enthalpy=                  0.189463
 Thermal correction to Gibbs Free Energy=         0.133652
 Sum of electronic and zero-point Energies=           -758.923088
 Sum of electronic and thermal Energies=              -758.910631
 Sum of electronic and thermal Enthalpies=            -758.909687
 Sum of electronic and thermal Free Energies=         -758.965498

                     E (Thermal)             CV                S
                      KCal/Mol        Cal/Mol-Kelvin    Cal/Mol-Kelvin
 Total                  118.298             47.530            117.464
 Electronic               0.000              0.000              0.000
 Translational            0.889              2.981             42.014
 Rotational               0.889              2.981             32.650
 Vibrational            116.520             41.568             42.799
 Vibration     1          0.593              1.987              8.442
 Vibration     2          0.594              1.982              5.358
 Vibration     3          0.597              1.972              4.369
 Vibration     4          0.598              1.970              4.220
 Vibration     5          0.604              1.948              3.416
 Vibration     6          0.637              1.842              2.148
 Vibration     7          0.657              1.779              1.802
 Vibration     8          0.684              1.698              1.492
 Vibration     9          0.705              1.637              1.314
 Vibration    10          0.766              1.469              0.961
 Vibration    11          0.771              1.457              0.940
 Vibration    12          0.785              1.420              0.881
 Vibration    13          0.789              1.410              0.866
 Vibration    14          0.855              1.251              0.659
 Vibration    15          0.856              1.249              0.657
 Vibration    16          0.890              1.173              0.576
 Vibration    17          0.976              0.998              0.423

 Optimization completed.
    -- Stationary point found.
 Normal termination of Gaussian 16 at Sat Sep 16 18:06:59 2023.
