 Gaussian 16, Revision B.01,
 Gaussian 16:  EM64L-G16RevB.01 20-Dec-2017

 ---------------------------------------------------------
 # opt freq b3lyp/6-31+g(d) empiricaldispersion=gd3 volume
 ---------------------------------------------------------

 -------------------
 Title Card Required
 -------------------
 Symbolic Z-matrix:
 Charge =  0 Multiplicity = 1

 SCF Done:  E(RB3LYP) =  -555.507329813     A.U. after   15 cycles
 SCF Done:  E(RB3LYP) =  -555.530505005     A.U. after   15 cycles
 SCF Done:  E(RB3LYP) =  -555.524348220     A.U. after   16 cycles
 SCF Done:  E(RB3LYP) =  -555.531461002     A.U. after   14 cycles
 SCF Done:  E(RB3LYP) =  -555.532946047     A.U. after   14 cycles
 SCF Done:  E(RB3LYP) =  -555.529402759     A.U. after   16 cycles
 SCF Done:  E(RB3LYP) =  -555.533070655     A.U. after   13 cycles
 SCF Done:  E(RB3LYP) =  -555.533142705     A.U. after   15 cycles
 SCF Done:  E(RB3LYP) =  -555.533164498     A.U. after   15 cycles
 SCF Done:  E(RB3LYP) =  -555.533167074     A.U. after   11 cycles
 SCF Done:  E(RB3LYP) =  -555.533167417     A.U. after   10 cycles
 SCF Done:  E(RB3LYP) =  -555.533167425     A.U. after    8 cycles
 Optimization completed.
    -- Stationary point found.
 Normal termination of Gaussian 16 at Sun Sep 17 16:16:10 2023.

 ---------------------------------------------------------------------
 #N Geom=AllCheck Guess=TCheck SCRF=Check GenChk RB3LYP/6-31+G(d) Freq
 ---------------------------------------------------------------------

 Structure from the checkpoint file:  "molecule_10.chk"
 -------------------
 Title Card Required
 -------------------
 Charge =  0 Multiplicity = 1

                         Standard orientation:
 ---------------------------------------------------------------------
 Center     Atomic      Atomic             Coordinates (Angstroms)
 Number     Number       Type             X           Y           Z
 ---------------------------------------------------------------------
      1          6           0       -2.762226   -1.183915   -0.000059
      2          6           0       -2.041843    0.031663    0.000043
      3          6           0       -2.788187    1.225312    0.000061
      4          6           0       -4.178040    1.149845    0.000017
      5          6           0       -4.784447   -0.110167   -0.000104
      6          1           0       -2.220782   -2.127614   -0.000124
      7          1           0       -2.276226    2.183278    0.000093
      8          1           0       -4.785709    2.050355    0.000073
      9          1           0       -5.868502   -0.203689   -0.000052
     10          6           0       -0.619348    0.033008    0.000067
     11          6           0        0.597873    0.024862    0.000136
     12          6           0        2.023178    0.011985    0.000065
     13          6           0        2.727100   -1.210381    0.000084
     14          6           0        2.751157    1.220135   -0.000020
     15          6           0        4.121042   -1.219097    0.000007
     16          1           0        2.170380   -2.142947    0.000149
     17          6           0        4.145036    1.201523   -0.000101
     18          1           0        2.213144    2.163669   -0.000036
     19          6           0        4.834887   -0.015742   -0.000084
     20          1           0        4.652130   -2.167432    0.000020
     21          1           0        4.694881    2.139119   -0.000170
     22          1           0        5.921630   -0.026526   -0.000140
     23          7           0       -4.094006   -1.260342   -0.000069
 ---------------------------------------------------------------------

 SCF Done:  E(RB3LYP) =  -555.533167425     A.U. after    1 cycles

 The electronic state is 1-A.
 Alpha  occ. eigenvalues --  -14.34737 -10.23872 -10.23656 -10.23589 -10.23080
 Alpha  occ. eigenvalues --  -10.22520 -10.21479 -10.21109 -10.21077 -10.20932
 Alpha  occ. eigenvalues --  -10.20858 -10.20832 -10.20746 -10.20497  -0.95546
 Alpha  occ. eigenvalues --   -0.87521  -0.83388  -0.79802  -0.78282  -0.76258
 Alpha  occ. eigenvalues --   -0.73323  -0.66076  -0.64401  -0.62732  -0.62146
 Alpha  occ. eigenvalues --   -0.55957  -0.54222  -0.51119  -0.49899  -0.49171
 Alpha  occ. eigenvalues --   -0.46864  -0.45222  -0.44645  -0.43755  -0.41807
 Alpha  occ. eigenvalues --   -0.41593  -0.39161  -0.38808  -0.37280  -0.36380
 Alpha  occ. eigenvalues --   -0.33998  -0.30000  -0.29149  -0.28461  -0.26902
 Alpha  occ. eigenvalues --   -0.26503  -0.22885
 Alpha virt. eigenvalues --   -0.06840  -0.03916  -0.02401  -0.01515  -0.00243
 Alpha virt. eigenvalues --    0.00565   0.01862   0.02117   0.02937   0.03322
 Alpha virt. eigenvalues --    0.04054   0.04517   0.04552   0.05594   0.05635

 Mulliken charges:
               1
     1  C   -0.518146
     2  C    0.493368
     3  C   -0.204208
     4  C    0.097198
     5  C   -0.337993
     6  H    0.193252
     7  H    0.201627
     8  H    0.190707
     9  H    0.184866
    10  C   -0.002479
    11  C   -0.471759
    12  C    0.546933
    13  C   -0.499735
    14  C   -0.330215
    15  C   -0.042329
    16  H    0.196359
    17  C   -0.092538
    18  H    0.192441
    19  C   -0.196836
    20  H    0.184663
    21  H    0.183974
    22  H    0.182993
    23  N   -0.152142
 Sum of Mulliken charges =   0.00000

 Dipole moment (field-independent basis, Debye):
    X=              1.6105    Y=              2.0134    Z=              0.0000  Tot=              2.5782
 Quadrupole moment (field-independent basis, Debye-Ang):
   XX=            -71.1562   YY=            -75.4620   ZZ=            -87.2843
   XY=            -10.2597   XZ=             -0.0009   YZ=             -0.0002

  Exact polarizability: 318.711  -2.558 148.875   0.001   0.000  79.637
 Approx polarizability: 459.337  -1.014 254.303   0.005   0.000 116.884

                      1                      2                      3
                      A                      A                      A
 Frequencies --     21.6117                45.0990                52.4930
 Red. masses --      4.0116                 5.1101                 5.6448
 Frc consts  --      0.0011                 0.0061                 0.0092
 IR Inten    --      1.0361                 0.5649                 0.5599

                      4                      5                      6
                      A                      A                      A
 Frequencies --    146.0911               148.0243               261.4061
 Red. masses --      4.6636                 5.2904                 6.6836
 Frc consts  --      0.0586                 0.0683                 0.2691
 IR Inten    --      0.2177                 0.4038                 0.0464

                      7                      8                      9
                      A                      A                      A
 Frequencies --    288.1368               404.3442               412.3306
 Red. masses --      4.5330                 3.1456                 2.9171
 Frc consts  --      0.2217                 0.3030                 0.2922
 IR Inten    --      0.2384                 0.8993                 0.0018

                     10                     11                     12
                      A                      A                      A
 Frequencies --    425.8745               474.8222               535.0514
 Red. masses --      4.3872                 7.0641                 3.9523
 Frc consts  --      0.4688                 0.9384                 0.6666
 IR Inten    --      3.0054                 3.2827                 4.4537

                     13                     14                     15
                      A                      A                      A
 Frequencies --    548.5923               558.2026               634.1999
 Red. masses --      8.3142                 8.0669                 6.8515
 Frc consts  --      1.4743                 1.4809                 1.6236
 IR Inten    --      3.2896                 8.4174                 1.5374

                     16                     17                     18
                      A                      A                      A
 Frequencies --    634.3194               637.0987               700.3191
 Red. masses --      4.7817                 7.6449                 1.8776
 Frc consts  --      1.1336                 1.8283                 0.5426
 IR Inten    --      4.5445                 3.9442                37.3449

                     19                     20                     21
                      A                      A                      A
 Frequencies --    714.6984               731.1784               775.2575
 Red. masses --      2.1770                 6.5955                 1.8900
 Frc consts  --      0.6552                 2.0775                 0.6693
 IR Inten    --     28.1906                 0.1928                45.6754

                     22                     23                     24
                      A                      A                      A
 Frequencies --    815.0826               853.4956               861.5021
 Red. masses --      1.6041                 1.2483                 6.7139
 Frc consts  --      0.6279                 0.5357                 2.9359
 IR Inten    --     26.8806                 0.0004                 0.4623

                     25                     26                     27
                      A                      A                      A
 Frequencies --    930.8944               939.3552               965.7874
 Red. masses --      1.4152                 1.3393                 1.4180
 Frc consts  --      0.7226                 0.6963                 0.7793
 IR Inten    --      2.7774                 0.5826                 1.2538

                     28                     29                     30
                      A                      A                      A
 Frequencies --    980.0147               996.4925              1002.7618
 Red. masses --      1.3649                 1.3762                 1.2836
 Frc consts  --      0.7724                 0.8051                 0.7605
 IR Inten    --      0.0001                 0.0277                 0.0228

                     31                     32                     33
                      A                      A                      A
 Frequencies --   1012.7440              1034.9255              1051.6672
 Red. masses --      6.2642                 4.5528                 2.3506
 Frc consts  --      3.7854                 2.8730                 1.5317
 IR Inten    --      0.0908                 8.3391                 3.3009

                     34                     35                     36
                      A                      A                      A
 Frequencies --   1065.5964              1109.7166              1146.3882
 Red. masses --      2.5832                 1.6229                 1.5736
 Frc consts  --      1.7282                 1.1775                 1.2184
 IR Inten    --      2.5503                 5.2831                 6.8054

                     37                     38                     39
                      A                      A                      A
 Frequencies --   1171.7614              1200.4751              1217.2360
 Red. masses --      2.8814                 1.1089                 1.1529
 Frc consts  --      2.3309                 0.9416                 1.0064
 IR Inten    --      3.2323                 0.0081                 0.0662

                     40                     41                     42
                      A                      A                      A
 Frequencies --   1233.0133              1292.2401              1326.6630
 Red. masses --      1.4999                 5.2558                 3.3012
 Frc consts  --      1.3436                 5.1710                 3.4233
 IR Inten    --      7.0504                 1.1195                 0.0861

                     43                     44                     45
                      A                      A                      A
 Frequencies --   1349.7129              1364.2849              1371.7665
 Red. masses --      3.1535                 1.6976                 1.3397
 Frc consts  --      3.3847                 1.8616                 1.4853
 IR Inten    --      5.0733                 0.4442                 2.9855

                     46                     47                     48
                      A                      A                      A
 Frequencies --   1449.4110              1481.9542              1514.6436
 Red. masses --      2.3507                 2.1871                 2.1238
 Frc consts  --      2.9096                 2.8300                 2.8707
 IR Inten    --     20.5834                 4.4081                 9.6043

                     49                     50                     51
                      A                      A                      A
 Frequencies --   1538.6934              1600.7286              1617.0155
 Red. masses --      2.4334                 4.4809                 4.9670
 Frc consts  --      3.3944                 6.7648                 7.6519
 IR Inten    --     39.2581                11.9444                 1.0521

                     52                     53                     54
                      A                      A                      A
 Frequencies --   1632.6630              1651.3018              2307.5477
 Red. masses --      5.4877                 5.4012                11.9969
 Frc consts  --      8.6186                 8.6775                37.6376
 IR Inten    --      0.5465                10.3901                 9.1764

                     55                     56                     57
                      A                      A                      A
 Frequencies --   3178.4170              3180.7330              3184.0655
 Red. masses --      1.0879                 1.0856                 1.0918
 Frc consts  --      6.4753                 6.4713                 6.5217
 IR Inten    --     12.8823                 1.8763                 9.8454

                     58                     59                     60
                      A                      A                      A
 Frequencies --   3189.2304              3198.2410              3200.4464
 Red. masses --      1.0886                 1.0908                 1.0920
 Frc consts  --      6.5235                 6.5737                 6.5899
 IR Inten    --      5.0232                18.1689                18.9554

                     61                     62                     63
                      A                      A                      A
 Frequencies --   3207.6721              3212.4509              3213.5511
 Red. masses --      1.0943                 1.0975                 1.0970
 Frc consts  --      6.6339                 6.6731                 6.6743
 IR Inten    --     23.5707                13.6830                14.5992

 - Thermochemistry -
 -------------------
 Temperature   298.150 Kelvin.  Pressure   1.00000 Atm.
 Atom     1 has atomic number  6 and mass  12.00000

 Molecular mass:   179.07350 amu.
 Principal axes and moments of inertia in atomic units:
                           1         2         3
     Eigenvalues --   628.538277282.380817910.91908
           X            0.99999  -0.00473   0.00000
           Y            0.00473   0.99999   0.00000
           Z            0.00000   0.00000   1.00000
 This molecule is an asymmetric top.
 Rotational symmetry number  1.
 Warning -- assumption of classical behavior for rotation
           may cause significant error
 Rotational temperatures (Kelvin)      0.13780     0.01189     0.01095
 Rotational constants (GHZ):           2.87133     0.24782     0.22813
 Zero-point vibrational energy     472533.9 (Joules/Mol)
                                  112.93831 (Kcal/Mol)
 Warning -- explicit consideration of  14 degrees of freedom as
           vibrations may cause significant error
 Vibrational temperatures:     31.09    64.89    75.53   210.19   212.97
          (Kelvin)            376.11   414.56   581.76   593.25   612.74
                              683.16   769.82   789.30   803.13   912.47
                              912.64   916.64  1007.60  1028.29  1052.00
                             1115.42  1172.72  1227.99  1239.51  1339.35
                             1351.52  1389.55  1410.02  1433.73  1442.75
                             1457.11  1489.03  1513.11  1533.16  1596.63
                             1649.40  1685.90  1727.22  1751.33  1774.03
                             1859.25  1908.77  1941.94  1962.90  1973.67
                             2085.38  2132.20  2179.23  2213.84  2303.09
                             2326.52  2349.04  2375.86  3320.05  4573.03
                             4576.37  4581.16  4588.59  4601.56  4604.73
                             4615.12  4622.00  4623.58

 Zero-point correction=                           0.179979 (Hartree/Particle)
 Thermal correction to Energy=                    0.190888
 Thermal correction to Enthalpy=                  0.191832
 Thermal correction to Gibbs Free Energy=         0.140742
 Sum of electronic and zero-point Energies=           -555.353189
 Sum of electronic and thermal Energies=              -555.342279
 Sum of electronic and thermal Enthalpies=            -555.341335
 Sum of electronic and thermal Free Energies=         -555.392426

                     E (Thermal)             CV                S
                      KCal/Mol        Cal/Mol-Kelvin    Cal/Mol-Kelvin
 Total                  119.784             42.220            107.529
 Electronic               0.000              0.000              0.000
 Translational            0.889              2.981             41.455
 Rotational               0.889              2.981             31.960
 Vibrational            118.007             36.258             34.114
 Vibration     1          0.593              1.985              6.480
 Vibration     2          0.595              1.979              5.021
 Vibration     3          0.596              1.977              4.721
 Vibration     4          0.617              1.907              2.723
 Vibration     5          0.617              1.905              2.697
 Vibration     6          0.669              1.743              1.652
 Vibration     7          0.685              1.696              1.485
 Vibration     8          0.770              1.461              0.947
 Vibration     9          0.776              1.443              0.918
 Vibration    10          0.788              1.414              0.872
 Vibration    11          0.832              1.306              0.724
 Vibration    12          0.890              1.172              0.576
 Vibration    13          0.904              1.143              0.547
 Vibration    14          0.914              1.122              0.527

 Optimization completed.
    -- Stationary point found.
 Normal termination of Gaussian 16 at Sun Sep 17 16:19:09 2023.
