 Gaussian 16, Revision B.01,
 Gaussian 16:  EM64L-G16RevB.01 20-Dec-2017

 ----------------------------------------------------------------
 # opt freq b3lyp/6-31+g(d) nosymm empiricaldispersion=gd3 volume
 ----------------------------------------------------------------

 -------------------
 Title Card Required
 -------------------
 Symbolic Z-matrix:
 Charge =  0 Multiplicity = 1

 SCF Done:  E(RB3LYP) =  -694.256023850     A.U. after   14 cycles
 SCF Done:  E(RB3LYP) =  -694.292030164     A.U. after   13 cycles
 SCF Done:  E(RB3LYP) =  -694.296414516     A.U. after   16 cycles
 SCF Done:  E(RB3LYP) =  -694.297356793     A.U. after   16 cycles
 SCF Done:  E(RB3LYP) =  -694.301225969     A.U. after   14 cycles
 SCF Done:  E(RB3LYP) =  -694.301375116     A.U. after   16 cycles
 SCF Done:  E(RB3LYP) =  -694.302276333     A.U. after   16 cycles
 SCF Done:  E(RB3LYP) =  -694.301816020     A.U. after   16 cycles
 SCF Done:  E(RB3LYP) =  -694.302552303     A.U. after   14 cycles
 SCF Done:  E(RB3LYP) =  -694.302697951     A.U. after   13 cycles
 SCF Done:  E(RB3LYP) =  -694.302793227     A.U. after   11 cycles
 SCF Done:  E(RB3LYP) =  -694.302793475     A.U. after   10 cycles
 SCF Done:  E(RB3LYP) =  -694.302793834     A.U. after   10 cycles
 SCF Done:  E(RB3LYP) =  -694.302793999     A.U. after    9 cycles
 SCF Done:  E(RB3LYP) =  -694.302794654     A.U. after   10 cycles
 SCF Done:  E(RB3LYP) =  -694.302796072     A.U. after   11 cycles
 SCF Done:  E(RB3LYP) =  -694.302797148     A.U. after   10 cycles
 SCF Done:  E(RB3LYP) =  -694.302798714     A.U. after   10 cycles
 SCF Done:  E(RB3LYP) =  -694.302798875     A.U. after    9 cycles
 Optimization completed.
    -- Stationary point found.
 Normal termination of Gaussian 16 at Thu Sep 21 04:00:03 2023.

 ---------------------------------------------------------------------
 #N Geom=AllCheck Guess=TCheck SCRF=Check GenChk RB3LYP/6-31+G(d) Freq
 ---------------------------------------------------------------------

 Structure from the checkpoint file:  "molecule_43.chk"
 -------------------
 Title Card Required
 -------------------
 Charge =  0 Multiplicity = 1

                          Input orientation:
 ---------------------------------------------------------------------
 Center     Atomic      Atomic             Coordinates (Angstroms)
 Number     Number       Type             X           Y           Z
 ---------------------------------------------------------------------
      1          6           0        0.038769    0.178598    0.215183
      2          6           0        0.073944    0.158130    1.607094
      3          6           0        1.288452   -0.069625    2.287743
      4          6           0        2.457383   -0.276443    1.525261
      5          6           0        2.405108   -0.252875    0.134061
      6          6           0        1.199708   -0.022876   -0.547498
      7          1           0       -0.909003    0.352793   -0.289983
      8          1           0       -0.835126    0.314064    2.180664
      9          1           0        3.398923   -0.457943    2.035423
     10          1           0        3.317659   -0.417934   -0.435020
     11          6           0        1.332730   -0.094964    3.708214
     12          6           0        1.371190   -0.116009    4.930064
     13          6           0        1.413882   -0.139519    6.289647
     14          6           0        1.452316   -0.160715    7.511498
     15          6           0        1.496587   -0.186108    8.931935
     16          6           0        0.327923    0.021322    9.694471
     17          6           0        2.711087   -0.414756    9.612497
     18          6           0        0.380292   -0.002435   11.085765
     19          1           0       -0.613572    0.203414    9.184440
     20          6           0        2.746348   -0.435396   11.004302
     21          1           0        3.619975   -0.571249    9.038789
     22          6           0        1.585525   -0.233185   11.767153
     23          1           0       -0.532144    0.163043   11.654877
     24          1           0        3.694023   -0.610308   11.509440
     25          6           0        1.626858   -0.293492   13.275778
     26          1           0        0.849775    0.335141   13.724667
     27          1           0        1.463183   -1.320160   13.631341
     28          1           0        2.597017    0.035481   13.664685
     29          6           0        1.159384    0.037386   -2.056145
     30          1           0        1.342875    1.060536   -2.412222
     31          1           0        1.924511   -0.606083   -2.504671
     32          1           0        0.183239   -0.273290   -2.444948
 ---------------------------------------------------------------------

 SCF Done:  E(RB3LYP) =  -694.302798875     A.U. after    1 cycles

 Alpha  occ. eigenvalues --  -10.22433 -10.22432 -10.21330 -10.21330 -10.20941
 Alpha  occ. eigenvalues --  -10.20881 -10.20633 -10.20633 -10.20632 -10.20632
 Alpha  occ. eigenvalues --  -10.20595 -10.20587 -10.20130 -10.20129 -10.20128
 Alpha  occ. eigenvalues --  -10.20128 -10.19482 -10.19482  -0.87326  -0.87294
 Alpha  occ. eigenvalues --   -0.81208  -0.80230  -0.77794  -0.75757  -0.75757
 Alpha  occ. eigenvalues --   -0.74133  -0.70951  -0.69100  -0.62895  -0.61969
 Alpha  occ. eigenvalues --   -0.61966  -0.60572  -0.58324  -0.54252  -0.53049
 Alpha  occ. eigenvalues --   -0.47763  -0.47722  -0.47329  -0.47233  -0.43749
 Alpha  occ. eigenvalues --   -0.43563  -0.43150  -0.43150  -0.42994  -0.42982
 Alpha  occ. eigenvalues --   -0.39920  -0.39842  -0.38585  -0.37809  -0.36433
 Alpha  occ. eigenvalues --   -0.36388  -0.35685  -0.35341  -0.34150  -0.33715
 Alpha  occ. eigenvalues --   -0.29756  -0.26437  -0.26436  -0.25753  -0.24652
 Alpha  occ. eigenvalues --   -0.20967
 Alpha virt. eigenvalues --   -0.06627  -0.02063  -0.02046  -0.02018  -0.01849
 Alpha virt. eigenvalues --    0.00390   0.00543   0.01532   0.02227   0.02394
 Alpha virt. eigenvalues --    0.02444   0.03173   0.03939   0.04661   0.04846

 Mulliken charges:
               1
     1  C   -0.236819
     2  C   -0.155262
     3  C   -0.193922
     4  C   -0.150584
     5  C   -0.222068
     6  C    0.423705
     7  H    0.177844
     8  H    0.195217
     9  H    0.195229
    10  H    0.177891
    11  C   -1.233840
    12  C    1.101137
    13  C    1.101075
    14  C   -1.233822
    15  C   -0.194020
    16  C   -0.155942
    17  C   -0.149722
    18  C   -0.239763
    19  H    0.195225
    20  C   -0.219235
    21  H    0.195222
    22  C    0.423733
    23  H    0.177840
    24  H    0.177897
    25  C   -0.728227
    26  H    0.210004
    27  H    0.229316
    28  H    0.210414
    29  C   -0.728253
    30  H    0.229318
    31  H    0.210360
    32  H    0.210051
 Sum of Mulliken charges =   0.00000

 Dipole moment (field-independent basis, Debye):
    X=              0.0031    Y=             -0.0007    Z=             -0.0001  Tot=              0.0032
 Quadrupole moment (field-independent basis, Debye-Ang):
   XX=            -97.1568   YY=           -112.3009   ZZ=            -66.0811
   XY=             -2.9071   XZ=              0.8132   YZ=             -1.4296

  Exact polarizability: 179.447 -12.974 112.174  11.305  -9.409 558.899
 Approx polarizability: 298.848 -25.371 166.357  13.610 -11.884 759.724

                      1                      2                      3
                      A                      A                      A
 Frequencies --     13.5036                23.6388                25.6792
 Red. masses --      3.3257                 3.9407                 1.0717
 Frc consts  --      0.0004                 0.0013                 0.0004
 IR Inten    --      0.0008                 1.2042                 0.0552

                      4                      5                      6
                      A                      A                      A
 Frequencies --     25.9410                26.7018                66.6249
 Red. masses --      4.8131                 1.0760                 4.5837
 Frc consts  --      0.0019                 0.0005                 0.0120
 IR Inten    --      1.1930                 0.2186                 0.0000

                      7                      8                      9
                      A                      A                      A
 Frequencies --     70.4133               131.5651               202.2315
 Red. masses --      5.2017                 4.8590                 7.2723
 Frc consts  --      0.0152                 0.0496                 0.1752
 IR Inten    --      0.0000                 0.1062                 0.0044

                     10                     11                     12
                      A                      A                      A
 Frequencies --    203.4274               206.4960               280.6766
 Red. masses --      5.3078                 5.2231                 4.8444
 Frc consts  --      0.1294                 0.1312                 0.2249
 IR Inten    --      0.0000                 0.0000                 1.1267

                     13                     14                     15
                      A                      A                      A
 Frequencies --    337.3867               350.0575               375.6638
 Red. masses --      2.9442                 2.8579                 5.0659
 Frc consts  --      0.1975                 0.2063                 0.4212
 IR Inten    --      0.0003                 0.0145                 0.0000

                     16                     17                     18
                      A                      A                      A
 Frequencies --    411.5102               412.6755               423.1353
 Red. masses --      2.9543                 2.9562                 6.9559
 Frc consts  --      0.2948                 0.2966                 0.7338
 IR Inten    --      0.0041                 0.0000                13.2496

                     19                     20                     21
                      A                      A                      A
 Frequencies --    447.6420               474.6578               514.9169
 Red. masses --      4.4562                 5.8121                 6.9418
 Frc consts  --      0.5261                 0.7715                 1.0844
 IR Inten    --     16.6224                 0.0001                 2.2037

                     22                     23                     24
                      A                      A                      A
 Frequencies --    521.2823               548.1127               591.8905
 Red. masses --      2.7735                 3.4755                 5.3351
 Frc consts  --      0.4440                 0.6152                 1.1012
 IR Inten    --      0.0000                19.5397                 0.0000

                     25                     26                     27
                      A                      A                      A
 Frequencies --    613.4625               658.2162               661.7952
 Red. masses --     10.6882                 7.0416                 7.3661
 Frc consts  --      2.3699                 1.7975                 1.9008
 IR Inten    --      0.0000                 0.2259                 0.0000

                     28                     29                     30
                      A                      A                      A
 Frequencies --    703.3051               716.5587               718.3958
 Red. masses --      4.5678                 3.3980                 3.4788
 Frc consts  --      1.3312                 1.0280                 1.0578
 IR Inten    --      0.6357                 0.0000                 2.0718

                     31                     32                     33
                      A                      A                      A
 Frequencies --    754.8698               806.7516               829.1128
 Red. masses --      8.3916                 4.9241                 2.2185
 Frc consts  --      2.8173                 1.8882                 0.8985
 IR Inten    --      0.0000                 0.0000                50.2884

                     34                     35                     36
                      A                      A                      A
 Frequencies --    832.6894               833.2714               847.7518
 Red. masses --      1.5206                 2.4456                 1.2491
 Frc consts  --      0.6212                 1.0005                 0.5289
 IR Inten    --      0.0009                47.8513                 0.0361

                     37                     38                     39
                      A                      A                      A
 Frequencies --    847.8200               968.1111               968.1501
 Red. masses --      1.2487                 1.2931                 1.2951
 Frc consts  --      0.5288                 0.7141                 0.7152
 IR Inten    --      0.0003                 1.8306                 0.0012

                     40                     41                     42
                      A                      A                      A
 Frequencies --    976.1246               976.1410              1002.3860
 Red. masses --      1.3567                 1.3565                 8.1437
 Frc consts  --      0.7616                 0.7616                 4.8211
 IR Inten    --      0.0013                 0.0001                 0.0000

                     43                     44                     45
                      A                      A                      A
 Frequencies --   1021.3104              1021.3174              1038.3693
 Red. masses --      1.4050                 1.4052                 2.9062
 Frc consts  --      0.8635                 0.8636                 1.8462
 IR Inten    --      0.0151                 0.0624                 6.7612

                     46                     47                     48
                      A                      A                      A
 Frequencies --   1041.9537              1070.4646              1070.7361
 Red. masses --      2.5921                 1.5313                 1.5314
 Frc consts  --      1.6580                 1.0338                 1.0344
 IR Inten    --      0.0000                42.4302                 0.0064

                     49                     50                     51
                      A                      A                      A
 Frequencies --   1154.5999              1154.6169              1216.5680
 Red. masses --      1.3501                 1.3505                 1.6655
 Frc consts  --      1.0604                 1.0608                 1.4523
 IR Inten    --      0.0026                 9.7547                 4.8251

                     52                     53                     54
                      A                      A                      A
 Frequencies --   1225.3106              1234.4368              1237.6464
 Red. masses --      1.1362                 2.6795                 3.1333
 Frc consts  --      1.0051                 2.4057                 2.8278
 IR Inten    --      0.0000                 0.6789                 0.0000

                     55                     56                     57
                      A                      A                      A
 Frequencies --   1244.5207              1322.7492              1322.8843
 Red. masses --      2.2556                 4.4863                 4.4957
 Frc consts  --      2.0583                 4.6248                 4.6355
 IR Inten    --     22.1928                 0.1112                 0.0020

                     58                     59                     60
                      A                      A                      A
 Frequencies --   1349.4076              1349.4474              1390.2384
 Red. masses --      1.4956                 1.4966                 4.6182
 Frc consts  --      1.6045                 1.6057                 5.2590
 IR Inten    --      0.0030                 0.1863                 0.0000

                     61                     62                     63
                      A                      A                      A
 Frequencies --   1438.5076              1438.7007              1448.1047
 Red. masses --      1.2335                 1.2322                 2.5034
 Frc consts  --      1.5039                 1.5026                 3.0930
 IR Inten    --      1.8677                 0.0002                 2.8549

                     64                     65                     66
                      A                      A                      A
 Frequencies --   1448.1693              1509.9647              1509.9962
 Red. masses --      2.5036                 1.1082                 1.1084
 Frc consts  --      3.0936                 1.4887                 1.4890
 IR Inten    --      0.0011                13.8771                 6.1584

                     67                     68                     69
                      A                      A                      A
 Frequencies --   1512.7400              1512.7607              1547.6792
 Red. masses --      1.0531                 1.0530                 2.3885
 Frc consts  --      1.4199                 1.4198                 3.3708
 IR Inten    --     12.4606                 1.7821                75.6348

                     70                     71                     72
                      A                      A                      A
 Frequencies --   1559.1157              1598.7756              1598.8323
 Red. masses --      2.7350                 5.0134                 5.0197
 Frc consts  --      3.9171                 7.5502                 7.5602
 IR Inten    --      0.0001                 1.1805                 0.0035

                     73                     74                     75
                      A                      A                      A
 Frequencies --   1657.6113              1658.4000              2234.9951
 Red. masses --      5.4734                 5.4840                11.9986
 Frc consts  --      8.8609                 8.8864                35.3130
 IR Inten    --      0.0002                10.4006                 4.3489

                     76                     77                     78
                      A                      A                      A
 Frequencies --   2310.7406              3033.0849              3033.1997
 Red. masses --     11.9959                 1.0407                 1.0407
 Frc consts  --     37.7385                 5.6409                 5.6412
 IR Inten    --      0.0000                95.8127                 8.6563

                     79                     80                     81
                      A                      A                      A
 Frequencies --   3089.4658              3089.4905              3115.8869
 Red. masses --      1.0951                 1.0951                 1.1027
 Frc consts  --      6.1584                 6.1588                 6.3079
 IR Inten    --     30.6401                14.0413                15.5989

                     82                     83                     84
                      A                      A                      A
 Frequencies --   3115.9620              3174.6141              3174.6262
 Red. masses --      1.1027                 1.0888                 1.0888
 Frc consts  --      6.3082                 6.4650                 6.4651
 IR Inten    --     17.4960                 7.1247                21.2103

                     85                     86                     87
                      A                      A                      A
 Frequencies --   3175.3061              3175.4558              3205.0221
 Red. masses --      1.0889                 1.0888                 1.0931
 Frc consts  --      6.4684                 6.4688                 6.6158
 IR Inten    --     68.4858                 0.2532                 0.0187

                     88                     89                     90
                      A                      A                      A
 Frequencies --   3205.0593              3206.5436              3206.6225
 Red. masses --      1.0931                 1.0940                 1.0941
 Frc consts  --      6.6160                 6.6277                 6.6284
 IR Inten    --     37.0878                 1.3944                 0.0035

 - Thermochemistry -
 -------------------
 Temperature   298.150 Kelvin.  Pressure   1.00000 Atm.
 Atom     1 has atomic number  6 and mass  12.00000

 Molecular mass:   230.10955 amu.
 Principal axes and moments of inertia in atomic units:
                           1         2         3
     Eigenvalues --   655.93803********************
           X            0.03105   0.98316   0.18009
           Y           -0.01855  -0.17958   0.98357
           Z            0.99935  -0.03388   0.01266
 This molecule is an asymmetric top.
 Rotational symmetry number  1.
 Warning -- assumption of classical behavior for rotation
           may cause significant error
 Rotational temperatures (Kelvin)      0.13205     0.00442     0.00429
 Rotational constants (GHZ):           2.75139     0.09218     0.08929
 Zero-point vibrational energy     675009.4 (Joules/Mol)
                                  161.33111 (Kcal/Mol)
 Warning -- explicit consideration of  25 degrees of freedom as
           vibrations may cause significant error
 Vibrational temperatures:     19.43    34.01    36.95    37.32    38.42
          (Kelvin)             95.86   101.31   189.29   290.97   292.69
                              297.10   403.83   485.42   503.65   540.50
                              592.07   593.75   608.80   644.06   682.93
                              740.85   750.01   788.61   851.60   882.64
                              947.03   952.18  1011.90  1030.97  1033.61
                             1086.09  1160.74  1192.91  1198.05  1198.89
                             1219.73  1219.82  1392.90  1392.95  1404.43
                             1404.45  1442.21  1469.44  1469.45  1493.98
                             1499.14  1540.16  1540.55  1661.21  1661.24
                             1750.37  1762.95  1776.08  1780.70  1790.59
                             1903.14  1903.34  1941.50  1941.55  2000.24
                             2069.69  2069.97  2083.50  2083.59  2172.50
                             2172.55  2176.50  2176.53  2226.77  2243.22
                             2300.28  2300.36  2384.93  2386.07  3215.66
                             3324.64  4363.93  4364.10  4445.05  4445.09
                             4483.07  4483.17  4567.56  4567.58  4568.56
                             4568.77  4611.31  4611.37  4613.50  4613.61

 Zero-point correction=                           0.257097 (Hartree/Particle)
 Thermal correction to Energy=                    0.273867
 Thermal correction to Enthalpy=                  0.274811
 Thermal correction to Gibbs Free Energy=         0.207291
 Sum of electronic and zero-point Energies=           -694.045701
 Sum of electronic and thermal Energies=              -694.028932
 Sum of electronic and thermal Enthalpies=            -694.027988
 Sum of electronic and thermal Free Energies=         -694.095507

                     E (Thermal)             CV                S
                      KCal/Mol        Cal/Mol-Kelvin    Cal/Mol-Kelvin
 Total                  171.854             61.814            142.107
 Electronic               0.000              0.000              0.000
 Translational            0.889              2.981             42.202
 Rotational               0.889              2.981             33.917
 Vibrational            170.077             55.853             65.988
 Vibration     1          0.593              1.987              7.414
 Vibration     2          0.593              1.985              6.302
 Vibration     3          0.593              1.985              6.138
 Vibration     4          0.593              1.985              6.118
 Vibration     5          0.593              1.984              6.061
 Vibration     6          0.598              1.970              4.251
 Vibration     7          0.598              1.968              4.142
 Vibration     8          0.612              1.922              2.923
 Vibration     9          0.639              1.837              2.113
 Vibration    10          0.639              1.835              2.102
 Vibration    11          0.641              1.831              2.074
 Vibration    12          0.680              1.709              1.530
 Vibration    13          0.718              1.601              1.224
 Vibration    14          0.727              1.575              1.166
 Vibration    15          0.747              1.522              1.057
 Vibration    16          0.775              1.445              0.921
 Vibration    17          0.776              1.443              0.917
 Vibration    18          0.785              1.420              0.881
 Vibration    19          0.807              1.366              0.803
 Vibration    20          0.831              1.306              0.725
 Vibration    21          0.870              1.217              0.622
 Vibration    22          0.876              1.203              0.607
 Vibration    23          0.903              1.144              0.548
 Vibration    24          0.949              1.049              0.464
 Vibration    25          0.973              1.003              0.427

                           ! Non-Optimized Parameters !
 Normal termination of Gaussian 16 at Thu Sep 21 04:06:12 2023.
