 Gaussian 16, Revision B.01,
 Gaussian 16:  EM64L-G16RevB.01 20-Dec-2017

 ----------------------------------------------------------------------
 # opt freq rb3lyp/gen nosymm empiricaldispersion=gd3 pseudo=read scf=m
 axcycle=1000 volume
 ----------------------------------------------------------------------

 -----
 reac1
 -----
 Symbolic Z-matrix:
 Charge =  0 Multiplicity = 1

 SCF Done:  E(RB3LYP) =  -449.542915166     A.U. after   14 cycles
 Optimization completed.
    -- Stationary point found.
 Normal termination of Gaussian 16 at Sat Sep 16 07:14:48 2023.

 ------------------------------------------------------------------
 #N Geom=AllCheck Guess=TCheck SCRF=Check GenChk RB3LYP/ChkBas Freq
 ------------------------------------------------------------------

 Structure from the checkpoint file:  "ARYLHALIDE-NO2-gen-Br-vol.chk"
 -----
 reac1
 -----
 Charge =  0 Multiplicity = 1

                          Input orientation:
 ---------------------------------------------------------------------
 Center     Atomic      Atomic             Coordinates (Angstroms)
 Number     Number       Type             X           Y           Z
 ---------------------------------------------------------------------
      1          6           0       -0.438775    0.022353   -0.000294
      2          6           0        0.219701    1.241427    0.174438
      3          6           0        0.260015   -1.175167   -0.167241
      4          6           0        1.613829    1.263712    0.182276
      5          1           0       -0.343186    2.159371    0.302424
      6          6           0        1.654143   -1.153249   -0.159157
      7          1           0       -0.271960   -2.110507   -0.301370
      8          6           0        2.310413    0.065975    0.015401
      9          1           0        2.157344    2.191610    0.315307
     10          1           0        2.228336   -2.063389   -0.285779
     11         35           0       -2.380305   -0.008482   -0.011572
     12          7           0        3.783817    0.089435    0.023576
     13          8           0        4.374972   -0.981679   -0.124929
     14          8           0        4.339211    1.178402    0.178344
 ---------------------------------------------------------------------

 SCF Done:  E(RB3LYP) =  -449.542915166     A.U. after    1 cycles

 Alpha  occ. eigenvalues --  -19.20329 -19.20320 -14.59147 -10.28877 -10.27465
 Alpha  occ. eigenvalues --  -10.24214 -10.24213 -10.24009 -10.24009  -1.24605
 Alpha  occ. eigenvalues --   -1.07378  -0.92340  -0.86508  -0.80742  -0.80226
 Alpha  occ. eigenvalues --   -0.71192  -0.66351  -0.61856  -0.58225  -0.55199
 Alpha  occ. eigenvalues --   -0.53611  -0.51059  -0.50233  -0.49272  -0.47579
 Alpha  occ. eigenvalues --   -0.42498  -0.40367  -0.40286  -0.34795  -0.33269
 Alpha  occ. eigenvalues --   -0.33121  -0.32003  -0.31249  -0.30370  -0.28431
 Alpha virt. eigenvalues --   -0.11543  -0.05704  -0.04218  -0.03014  -0.00484
 Alpha virt. eigenvalues --    0.01175   0.01910   0.03444   0.03737   0.04503
 Alpha virt. eigenvalues --    0.05319   0.06472   0.07363   0.07481   0.08026

 Mulliken charges:
               1
     1  C    0.409649
     2  C   -0.413628
     3  C   -0.413851
     4  C   -0.061908
     5  H    0.213435
     6  C   -0.061836
     7  H    0.213434
     8  C   -0.176301
     9  H    0.236140
    10  H    0.236170
    11  Br   0.123013
    12  N   -0.061527
    13  O   -0.121485
    14  O   -0.121306
 Sum of Mulliken charges =   0.00000

 Dipole moment (field-independent basis, Debye):
    X=             -3.3124    Y=             -0.0515    Z=             -0.0180  Tot=              3.3129
 Quadrupole moment (field-independent basis, Debye-Ang):
   XX=            -91.8299   YY=            -61.2508   ZZ=            -67.4810
   XY=             -0.5830   XZ=             -0.1568   YZ=              0.9015

  Exact polarizability: 163.462   0.960 100.502   0.518   6.718  53.870
 Approx polarizability: 234.993   0.642 188.678   0.646  16.060  77.073

                      1                      2                      3
                      A                      A                      A
 Frequencies --     58.0987                80.2737               173.3628
 Red. masses --      7.9780                10.1475                11.1496
 Frc consts  --      0.0159                 0.0385                 0.1974
 IR Inten    --      0.0000                 3.1546                 2.6528

                      4                      5                      6
                      A                      A                      A
 Frequencies --    243.1561               260.3921               315.1321
 Red. masses --     22.8073                 7.2182                 5.9763
 Frc consts  --      0.7945                 0.2884                 0.3497
 IR Inten    --      1.2486                 2.4335                 0.2589

                      7                      8                      9
                      A                      A                      A
 Frequencies --    419.7745               470.0924               474.9357
 Red. masses --      2.9698                 3.4078                 9.0357
 Frc consts  --      0.3083                 0.4437                 1.2008
 IR Inten    --      0.0000                 9.9406                16.4306

                     10                     11                     12
                      A                      A                      A
 Frequencies --    531.2137               633.1147               671.7906
 Red. masses --      7.6251                 7.1288                 4.6013
 Frc consts  --      1.2678                 1.6836                 1.2235
 IR Inten    --      1.6107                 0.7994                 4.2423

                     13                     14                     15
                      A                      A                      A
 Frequencies --    717.5154               743.3509               837.4672
 Red. masses --      8.0431                 4.5331                 1.2444
 Frc consts  --      2.4397                 1.4758                 0.5142
 IR Inten    --      2.3132                31.0299                 0.0000

                     16                     17                     18
                      A                      A                      A
 Frequencies --    857.0422               857.7088               983.3241
 Red. masses --      1.6450                10.5801                 1.2986
 Frc consts  --      0.7119                 4.5859                 0.7398
 IR Inten    --     37.7673                75.0102                 1.1020

                     19                     20                     21
                      A                      A                      A
 Frequencies --    991.8039              1023.1531              1079.9529
 Red. masses --      1.3542                 5.2267                 2.8377
 Frc consts  --      0.7848                 3.2238                 1.9499
 IR Inten    --      0.0000                45.8621                37.0391

                     22                     23                     24
                      A                      A                      A
 Frequencies --   1129.5125              1147.4581              1219.4282
 Red. masses --      3.3519                 1.3269                 1.2044
 Frc consts  --      2.5195                 1.0294                 1.0552
 IR Inten    --     31.3304                 5.9548                10.8397

                     25                     26                     27
                      A                      A                      A
 Frequencies --   1330.0450              1358.9133              1383.2266
 Red. masses --      1.4035                 5.7529                13.7171
 Frc consts  --      1.4628                 6.2592                15.4632
 IR Inten    --      1.8957                15.5587               393.7557

                     28                     29                     30
                      A                      A                      A
 Frequencies --   1437.9595              1516.9204              1594.5965
 Red. masses --      2.9048                 2.0903                11.4804
 Frc consts  --      3.5389                 2.8340                17.1992
 IR Inten    --      2.1525                37.5598               187.1634

                     31                     32                     33
                      A                      A                      A
 Frequencies --   1625.3465              1653.4709              3227.9214
 Red. masses --      5.5272                 8.6959                 1.0908
 Frc consts  --      8.6030                14.0074                 6.6964
 IR Inten    --     76.7352                83.2606                 0.1742

                     34                     35                     36
                      A                      A                      A
 Frequencies --   3228.4147              3248.0433              3248.5233
 Red. masses --      1.0906                 1.0933                 1.0944
 Frc consts  --      6.6973                 6.7959                 6.8046
 IR Inten    --      1.0492                 1.5105                 3.0725

 - Thermochemistry -
 -------------------
 Temperature   298.150 Kelvin.  Pressure   1.00000 Atm.
 Atom     1 has atomic number  6 and mass  12.00000

 Molecular mass:   200.94254 amu.
 Principal axes and moments of inertia in atomic units:
                           1         2         3
     Eigenvalues --   457.996914886.892835344.88955
           X            0.99986  -0.01651  -0.00342
           Y            0.01587   0.99006  -0.13973
           Z            0.00570   0.13965   0.99018
 This molecule is an asymmetric top.
 Rotational symmetry number  1.
 Warning -- assumption of classical behavior for rotation
           may cause significant error
 Rotational temperatures (Kelvin)      0.18911     0.01772     0.01620
 Rotational constants (GHZ):           3.94051     0.36930     0.33766
 Zero-point vibrational energy     243873.3 (Joules/Mol)
                                   58.28712 (Kcal/Mol)
 Warning -- explicit consideration of  10 degrees of freedom as
           vibrations may cause significant error
 Vibrational temperatures:     83.59   115.50   249.43   349.85   374.65
          (Kelvin)            453.40   603.96   676.36   683.33   764.30
                              910.91   966.56  1032.34  1069.52  1204.93
                             1233.09  1234.05  1414.78  1426.98  1472.09
                             1553.81  1625.12  1650.94  1754.49  1913.64
                             1955.17  1990.15  2068.90  2182.51  2294.27
                             2338.51  2378.98  4644.26  4644.97  4673.21
                             4673.90

 Zero-point correction=                           0.092886 (Hartree/Particle)
 Thermal correction to Energy=                    0.101174
 Thermal correction to Enthalpy=                  0.102118
 Thermal correction to Gibbs Free Energy=         0.057659
 Sum of electronic and zero-point Energies=           -449.450029
 Sum of electronic and thermal Energies=              -449.441741
 Sum of electronic and thermal Enthalpies=            -449.440797
 Sum of electronic and thermal Free Energies=         -449.485256

                     E (Thermal)             CV                S
                      KCal/Mol        Cal/Mol-Kelvin    Cal/Mol-Kelvin
 Total                   63.488             30.070             93.572
 Electronic               0.000              0.000              0.000
 Translational            0.889              2.981             41.798
 Rotational               0.889              2.981             30.860
 Vibrational             61.710             24.109             20.914
 Vibration     1          0.596              1.974              4.521
 Vibration     2          0.600              1.963              3.884
 Vibration     3          0.627              1.875              2.399
 Vibration     4          0.659              1.774              1.780
 Vibration     5          0.668              1.745              1.659
 Vibration     6          0.702              1.645              1.335
 Vibration     7          0.782              1.427              0.893
 Vibration     8          0.827              1.316              0.737
 Vibration     9          0.832              1.306              0.724
 Vibration    10          0.886              1.181              0.584

                           ! Non-Optimized Parameters !
 Normal termination of Gaussian 16 at Sat Sep 16 07:15:44 2023.
