 Gaussian 16, Revision B.01,
 Gaussian 16:  EM64L-G16RevB.01 20-Dec-2017

 ----------------------------------------------------------------------
 # opt freq b3lyp/gen empiricaldispersion=gd3 pseudo=read scf=maxcycle=
 1000 volume
 ----------------------------------------------------------------------

 -------------------
 Title Card Required
 -------------------
 Symbolic Z-matrix:
 Charge =  0 Multiplicity = 1

 SCF Done:  E(RB3LYP) =  -247.370864319     A.U. after   13 cycles
 SCF Done:  E(RB3LYP) =  -247.370864161     A.U. after    9 cycles
 SCF Done:  E(RB3LYP) =  -247.370864178     A.U. after    9 cycles
 SCF Done:  E(RB3LYP) =  -247.370864340     A.U. after    9 cycles
 SCF Done:  E(RB3LYP) =  -247.370864372     A.U. after    8 cycles
 Optimization completed.
    -- Stationary point found.
 Normal termination of Gaussian 16 at Wed Sep 20 06:07:57 2023.

 ------------------------------------------------------------------
 #N Geom=AllCheck Guess=TCheck SCRF=Check GenChk RB3LYP/ChkBas Freq
 ------------------------------------------------------------------

 Structure from the checkpoint file:  "MOLECULE11-vol.chk"
 -------------------
 Title Card Required
 -------------------
 Charge =  0 Multiplicity = 1

                         Standard orientation:
 ---------------------------------------------------------------------
 Center     Atomic      Atomic             Coordinates (Angstroms)
 Number     Number       Type             X           Y           Z
 ---------------------------------------------------------------------
      1          6           0       -1.113641    0.300534    0.000023
      2          6           0        0.042140    0.660100   -0.000237
      3         35           0       -2.872225   -0.219419    0.000022
      4          6           0        1.451603    1.057402    0.000018
      5          6           0        2.420606   -0.144538   -0.000116
      6          1           0        1.650829    1.686718    0.879201
      7          1           0        1.651015    1.687074   -0.878867
      8          1           0        2.216803   -0.769351    0.879777
      9          1           0        2.217003   -0.768989   -0.880313
     10          6           0        3.890565    0.291964    0.000141
     11          1           0        4.082642    0.923598   -0.879564
     12          1           0        4.082444    0.923225    0.880156
     13          6           0        4.859431   -0.896558   -0.000002
     14          1           0        4.709785   -1.526999   -0.885853
     15          1           0        5.903550   -0.561667    0.000187
     16          1           0        4.709585   -1.527375    0.885547
 ---------------------------------------------------------------------

 SCF Done:  E(RB3LYP) =  -247.370864372     A.U. after    1 cycles

 The electronic state is 1-A.
 Alpha  occ. eigenvalues --  -10.22368 -10.21248 -10.19862 -10.18992 -10.18675
 Alpha  occ. eigenvalues --  -10.17594  -0.86460  -0.81985  -0.76956  -0.71726
 Alpha  occ. eigenvalues --   -0.65296  -0.59286  -0.50452  -0.48748  -0.46283
 Alpha  occ. eigenvalues --   -0.44040  -0.43633  -0.39462  -0.37530  -0.36334
 Alpha  occ. eigenvalues --   -0.35291  -0.34788  -0.34441  -0.33832  -0.25891
 Alpha  occ. eigenvalues --   -0.25869
 Alpha virt. eigenvalues --   -0.02634   0.01005   0.01801   0.02453   0.03110
 Alpha virt. eigenvalues --    0.03599   0.04001   0.04830   0.05115   0.05713
 Alpha virt. eigenvalues --    0.05949   0.06493   0.07097   0.07633   0.08352

 Mulliken charges:
               1
     1  C   -0.642321
     2  C    0.873174
     3  Br   0.251649
     4  C   -0.965423
     5  C   -0.304347
     6  H    0.226150
     7  H    0.226140
     8  H    0.204880
     9  H    0.204873
    10  C   -0.185370
    11  H    0.191312
    12  H    0.191312
    13  C   -0.872879
    14  H    0.201173
    15  H    0.198503
    16  H    0.201174
 Sum of Mulliken charges =   0.00000

 Dipole moment (field-independent basis, Debye):
    X=              1.4260    Y=              0.2119    Z=              0.0001  Tot=              1.4417
 Quadrupole moment (field-independent basis, Debye-Ang):
   XX=            -48.0131   YY=            -53.6401   ZZ=            -53.5094
   XY=              2.3088   XZ=              0.0000   YZ=             -0.0001

  Exact polarizability: 129.517   9.598  67.049  -0.004  -0.001  59.054
 Approx polarizability: 160.225  23.526  89.687  -0.012  -0.004  81.321

                      1                      2                      3
                      A                      A                      A
 Frequencies --     58.9383                69.6680               120.5335
 Red. masses --      5.2550                 1.9855                 2.1695
 Frc consts  --      0.0108                 0.0057                 0.0186
 IR Inten    --      0.3492                 0.3060                 0.0359

                      4                      5                      6
                      A                      A                      A
 Frequencies --    166.2162               183.7596               245.0898
 Red. masses --      4.2524                 6.2023                 4.3693
 Frc consts  --      0.0692                 0.1234                 0.1546
 IR Inten    --      6.9136                 5.3045                 0.2967

                      7                      8                      9
                      A                      A                      A
 Frequencies --    254.2910               315.8087               332.3254
 Red. masses --      1.1476                 3.8795                 4.8340
 Frc consts  --      0.0437                 0.2280                 0.3145
 IR Inten    --      0.1071                 0.0782                 0.4267

                     10                     11                     12
                      A                      A                      A
 Frequencies --    466.2713               554.7476               750.0176
 Red. masses --      3.6551                 6.7266                 1.0781
 Frc consts  --      0.4682                 1.2197                 0.3573
 IR Inten    --      2.6261                 1.1354                 2.9079

                     13                     14                     15
                      A                      A                      A
 Frequencies --    809.2051               915.3941               950.7759
 Red. masses --      1.1910                 1.8771                 1.2388
 Frc consts  --      0.4595                 0.9267                 0.6598
 IR Inten    --      0.0928                 1.2632                 0.5455

                     16                     17                     18
                      A                      A                      A
 Frequencies --    993.8296              1059.4145              1066.0467
 Red. masses --      5.0318                 3.6902                 2.5293
 Frc consts  --      2.9282                 2.4402                 1.6935
 IR Inten    --      0.0976                 4.0163                 1.1436

                     19                     20                     21
                      A                      A                      A
 Frequencies --   1132.0231              1145.5139              1253.4070
 Red. masses --      2.1073                 1.4367                 1.3647
 Frc consts  --      1.5911                 1.1108                 1.2632
 IR Inten    --      3.3855                 0.0291                 0.1109

                     22                     23                     24
                      A                      A                      A
 Frequencies --   1295.5846              1331.1320              1346.3016
 Red. masses --      1.2994                 1.1551                 1.0580
 Frc consts  --      1.2850                 1.2059                 1.1299
 IR Inten    --      8.0686                 1.1194                 0.1214

                     25                     26                     27
                      A                      A                      A
 Frequencies --   1376.3907              1417.8228              1438.3697
 Red. masses --      1.3841                 1.5227                 1.2343
 Frc consts  --      1.5449                 1.8035                 1.5045
 IR Inten    --      5.0776                 2.2963                 3.1597

                     28                     29                     30
                      A                      A                      A
 Frequencies --   1499.3344              1513.6189              1520.3302
 Red. masses --      1.0840                 1.0658                 1.0681
 Frc consts  --      1.4358                 1.4387                 1.4545
 IR Inten    --      2.2298                 1.0343                 1.2331

                     31                     32                     33
                      A                      A                      A
 Frequencies --   1524.1713              1531.6340              2316.9198
 Red. masses --      1.0394                 1.0850                11.9146
 Frc consts  --      1.4226                 1.4997                37.6834
 IR Inten    --      9.0653                 6.8167                 6.5337

                     34                     35                     36
                      A                      A                      A
 Frequencies --   3018.1253              3023.1177              3034.7547
 Red. masses --      1.0590                 1.0581                 1.0377
 Frc consts  --      5.6836                 5.6975                 5.6307
 IR Inten    --     15.7179                28.4532                25.4468

                     37                     38                     39
                      A                      A                      A
 Frequencies --   3041.4749              3042.6277              3050.1836
 Red. masses --      1.0573                 1.1016                 1.1029
 Frc consts  --      5.7627                 6.0086                 6.0454
 IR Inten    --     56.4411                 9.2162                 0.2285

                     40                     41                     42
                      A                      A                      A
 Frequencies --   3083.8418              3100.1636              3103.7811
 Red. masses --      1.1056                 1.1030                 1.1016
 Frc consts  --      6.1948                 6.2458                 6.2526
 IR Inten    --     22.6960                79.9741                45.4516

 - Thermochemistry -
 -------------------
 Temperature   298.150 Kelvin.  Pressure   1.00000 Atm.
 Atom     1 has atomic number  6 and mass  12.00000

 Molecular mass:   159.98876 amu.
 Principal axes and moments of inertia in atomic units:
                           1         2         3
     Eigenvalues --   193.627644791.499544940.41600
           X            0.99995  -0.00998   0.00000
           Y            0.00998   0.99995   0.00001
           Z            0.00000  -0.00001   1.00000
 This molecule is an asymmetric top.
 Rotational symmetry number  1.
 Rotational temperatures (Kelvin)      0.44732     0.01808     0.01753
 Rotational constants (GHZ):           9.32068     0.37665     0.36530
 Zero-point vibrational energy     349626.3 (Joules/Mol)
                                   83.56270 (Kcal/Mol)
 Warning -- explicit consideration of  11 degrees of freedom as
           vibrations may cause significant error
 Vibrational temperatures:     84.80   100.24   173.42   239.15   264.39
          (Kelvin)            352.63   365.87   454.38   478.14   670.86
                              798.16  1079.11  1164.27  1317.05  1367.95
                             1429.90  1524.26  1533.80  1628.73  1648.14
                             1803.37  1864.06  1915.20  1937.03  1980.32
                             2039.93  2069.49  2157.21  2177.76  2187.42
                             2192.94  2203.68  3333.53  4342.41  4349.59
                             4366.34  4376.00  4377.66  4388.53  4436.96
                             4460.44  4465.65

 Zero-point correction=                           0.133166 (Hartree/Particle)
 Thermal correction to Energy=                    0.142192
 Thermal correction to Enthalpy=                  0.143136
 Thermal correction to Gibbs Free Energy=         0.097463
 Sum of electronic and zero-point Energies=           -247.237699
 Sum of electronic and thermal Energies=              -247.228672
 Sum of electronic and thermal Enthalpies=            -247.227728
 Sum of electronic and thermal Free Energies=         -247.273402

                     E (Thermal)             CV                S
                      KCal/Mol        Cal/Mol-Kelvin    Cal/Mol-Kelvin
 Total                   89.227             29.858             96.128
 Electronic               0.000              0.000              0.000
 Translational            0.889              2.981             41.119
 Rotational               0.889              2.981             29.906
 Vibrational             87.449             23.897             25.103
 Vibration     1          0.596              1.974              4.492
 Vibration     2          0.598              1.969              4.163
 Vibration     3          0.609              1.932              3.092
 Vibration     4          0.624              1.884              2.478
 Vibration     5          0.631              1.862              2.290
 Vibration     6          0.660              1.771              1.766
 Vibration     7          0.665              1.756              1.701
 Vibration     8          0.703              1.643              1.332
 Vibration     9          0.714              1.611              1.249
 Vibration    10          0.824              1.325              0.748
 Vibration    11          0.910              1.129              0.534

 Optimization completed.
    -- Stationary point found.
 Normal termination of Gaussian 16 at Wed Sep 20 06:08:38 2023.
