 Gaussian 16, Revision B.01,
 Gaussian 16:  EM64L-G16RevB.01 20-Dec-2017

 ----------------------------------------------------------------------
 # opt freq b3lyp/6-31+g(d) nosymm empiricaldispersion=gd3 scf=maxcycle
 =1000 volume
 ----------------------------------------------------------------------

 -------------------
 Title Card Required
 -------------------
 Symbolic Z-matrix:
 Charge =  0 Multiplicity = 1

 SCF Done:  E(RB3LYP) =  -896.374911772     A.U. after   14 cycles
 SCF Done:  E(RB3LYP) =  -896.374910968     A.U. after   10 cycles
 SCF Done:  E(RB3LYP) =  -896.374911045     A.U. after   10 cycles
 SCF Done:  E(RB3LYP) =  -896.374911889     A.U. after   10 cycles
 Optimization completed.
    -- Stationary point found.
 Normal termination of Gaussian 16 at Sat Sep 16 07:25:05 2023.

 ---------------------------------------------------------------------
 #N Geom=AllCheck Guess=TCheck SCRF=Check GenChk RB3LYP/6-31+G(d) Freq
 ---------------------------------------------------------------------

 Structure from the checkpoint file:  "ARyLHALIDENO2-SOL-disp-g16-gas-cl-vol.chk"
 -------------------
 Title Card Required
 -------------------
 Charge =  0 Multiplicity = 1

                          Input orientation:
 ---------------------------------------------------------------------
 Center     Atomic      Atomic             Coordinates (Angstroms)
 Number     Number       Type             X           Y           Z
 ---------------------------------------------------------------------
      1          6           0        0.027090   -1.512219   -0.158549
      2          6           0        1.411601   -1.492551    0.015434
      3          6           0        2.117718   -0.300353    0.181545
      4          6           0        1.419646    0.904910    0.173331
      5          6           0        0.032031    0.891915   -0.000654
      6          6           0       -0.669858   -0.306304   -0.166603
      7          1           0       -0.488164   -2.456966   -0.284623
      8          1           0        3.192809   -0.323230    0.314145
      9          1           0        1.943526    1.846140    0.300283
     10          1           0       -1.746194   -0.292662   -0.299999
     11          7           0        2.149314   -2.767573    0.023929
     12          8           0        1.502412   -3.805681   -0.124943
     13          8           0        3.370900   -2.722564    0.178910
     14         17           0       -0.844178    2.406353   -0.010894
 ---------------------------------------------------------------------

 SCF Done:  E(RB3LYP) =  -896.374911889     A.U. after    1 cycles

 Alpha  occ. eigenvalues -- -101.58256 -19.20553 -19.20552 -14.59341 -10.29620
 Alpha  occ. eigenvalues --  -10.27762 -10.24667 -10.24666 -10.24380 -10.24380
 Alpha  occ. eigenvalues --   -9.49768  -7.26183  -7.25209  -7.25156  -1.24544
 Alpha  occ. eigenvalues --   -1.07305  -0.93242  -0.88717  -0.81164  -0.80168
 Alpha  occ. eigenvalues --   -0.71034  -0.66393  -0.61813  -0.58178  -0.55116
 Alpha  occ. eigenvalues --   -0.53624  -0.52049  -0.50375  -0.49207  -0.47487
 Alpha  occ. eigenvalues --   -0.43185  -0.42473  -0.40327  -0.36918  -0.34379
 Alpha  occ. eigenvalues --   -0.33188  -0.33050  -0.31255  -0.30310  -0.28759
 Alpha virt. eigenvalues --   -0.11448  -0.05612  -0.02985  -0.01407  -0.00208
 Alpha virt. eigenvalues --    0.01356   0.02196   0.03287   0.04553   0.04921
 Alpha virt. eigenvalues --    0.06061   0.07132   0.07416   0.07506   0.08661

 Mulliken charges:
               1
     1  C    0.162936
     2  C   -0.312090
     3  C    0.162973
     4  C   -0.616946
     5  C    0.423693
     6  C   -0.616956
     7  H    0.236640
     8  H    0.236640
     9  H    0.215132
    10  H    0.215130
    11  N   -0.276048
    12  O   -0.042627
    13  O   -0.042626
    14  Cl   0.254148
 Sum of Mulliken charges =   0.00000

 Dipole moment (field-independent basis, Debye):
    X=             -1.7077    Y=              2.9514    Z=             -0.0191  Tot=              3.4099
 Quadrupole moment (field-independent basis, Debye-Ang):
   XX=            -67.5361   YY=            -79.2205   ZZ=            -64.8486
   XY=             13.4186   XZ=              0.6679   YZ=              0.5523

  Exact polarizability: 111.712 -22.024 137.124   6.195   2.926  51.439
 Approx polarizability: 196.758 -14.527 213.677  14.345   7.324  76.377

                      1                      2                      3
                      A                      A                      A
 Frequencies --     57.8422                92.5887               201.4515
 Red. masses --      7.9773                11.0669                12.4047
 Frc consts  --      0.0157                 0.0559                 0.2966
 IR Inten    --      0.0000                 3.4397                 3.1721

                      4                      5                      6
                      A                      A                      A
 Frequencies --    275.4428               315.4280               338.7741
 Red. masses --      7.3494                19.1663                 6.2475
 Frc consts  --      0.3285                 1.1235                 0.4225
 IR Inten    --      1.4441                 0.5794                 0.0017

                      7                      8                      9
                      A                      A                      A
 Frequencies --    421.3526               479.6812               532.4952
 Red. masses --      2.9922                 3.2520                 7.4457
 Frc consts  --      0.3130                 0.4409                 1.2439
 IR Inten    --      0.0000                 9.5536                 1.3876

                     10                     11                     12
                      A                      A                      A
 Frequencies --    536.6910               636.8641               679.7069
 Red. masses --      9.2593                 7.1589                 4.3574
 Frc consts  --      1.5714                 1.7108                 1.1861
 IR Inten    --     22.1617                 0.6703                 5.9012

                     13                     14                     15
                      A                      A                      A
 Frequencies --    740.2960               746.2993               837.3727
 Red. masses --      7.9769                 5.0425                 1.2441
 Frc consts  --      2.5757                 1.6547                 0.5140
 IR Inten    --      1.8400                28.5487                 0.0001

                     16                     17                     18
                      A                      A                      A
 Frequencies --    860.0237               860.5296               982.9587
 Red. masses --     10.4774                 1.6574                 1.3000
 Frc consts  --      4.5659                 0.7231                 0.7401
 IR Inten    --     63.0366                42.3855                 0.8272

                     19                     20                     21
                      A                      A                      A
 Frequencies --    990.6322              1031.9142              1108.4540
 Red. masses --      1.3498                 3.7500                 3.8593
 Frc consts  --      0.7805                 2.3527                 2.7938
 IR Inten    --      0.0001                20.7981                88.5234

                     22                     23                     24
                      A                      A                      A
 Frequencies --   1129.1695              1147.5167              1217.7711
 Red. masses --      3.1253                 1.3108                 1.2107
 Frc consts  --      2.3478                 1.0169                 1.0578
 IR Inten    --     28.2617                 7.0959                 8.5204

                     25                     26                     27
                      A                      A                      A
 Frequencies --   1328.4929              1359.6349              1380.6832
 Red. masses --      1.4248                 5.6108                13.7034
 Frc consts  --      1.4816                 6.1111                15.3910
 IR Inten    --      2.1391                13.5295               383.7040

                     28                     29                     30
                      A                      A                      A
 Frequencies --   1442.8286              1520.6030              1591.8114
 Red. masses --      2.9696                 2.1300                11.5676
 Frc consts  --      3.6423                 2.9018                17.2693
 IR Inten    --      1.7449                41.0887               188.7811

                     31                     32                     33
                      A                      A                      A
 Frequencies --   1632.5602              1651.9397              3224.0834
 Red. masses --      5.5841                 8.5790                 1.0910
 Frc consts  --      8.7688                13.7936                 6.6815
 IR Inten    --     71.8110                81.7197                 0.1142

                     34                     35                     36
                      A                      A                      A
 Frequencies --   3224.4456              3246.7076              3247.1123
 Red. masses --      1.0909                 1.0931                 1.0941
 Frc consts  --      6.6825                 6.7891                 6.7970
 IR Inten    --      1.0950                 1.4552                 3.4403

 - Thermochemistry -
 -------------------
 Temperature   298.150 Kelvin.  Pressure   1.00000 Atm.
 Atom     1 has atomic number  6 and mass  12.00000

 Molecular mass:   156.99306 amu.
 Principal axes and moments of inertia in atomic units:
                           1         2         3
     Eigenvalues --   457.500303198.247493655.74777
           X           -0.50079   0.85671  -0.12350
           Y            0.86555   0.49661  -0.06483
           Z           -0.00579   0.13936   0.99023
 This molecule is an asymmetric top.
 Rotational symmetry number  1.
 Warning -- assumption of classical behavior for rotation
           may cause significant error
 Rotational temperatures (Kelvin)      0.18932     0.02708     0.02369
 Rotational constants (GHZ):           3.94479     0.56429     0.49367
 Zero-point vibrational energy     245666.1 (Joules/Mol)
                                   58.71560 (Kcal/Mol)
 Warning -- explicit consideration of  10 degrees of freedom as
           vibrations may cause significant error
 Vibrational temperatures:     83.22   133.21   289.84   396.30   453.83
          (Kelvin)            487.42   606.23   690.15   766.14   772.18
                              916.31   977.95  1065.12  1073.76  1204.79
                             1237.38  1238.11  1414.26  1425.30  1484.69
                             1594.82  1624.62  1651.02  1752.10  1911.41
                             1956.21  1986.50  2075.91  2187.81  2290.26
                             2348.89  2376.77  4638.74  4639.26  4671.29
                             4671.87

 Zero-point correction=                           0.093569 (Hartree/Particle)
 Thermal correction to Energy=                    0.101570
 Thermal correction to Enthalpy=                  0.102514
 Thermal correction to Gibbs Free Energy=         0.059475
 Sum of electronic and zero-point Energies=           -896.281343
 Sum of electronic and thermal Energies=              -896.273342
 Sum of electronic and thermal Enthalpies=            -896.272398
 Sum of electronic and thermal Free Energies=         -896.315437

                     E (Thermal)             CV                S
                      KCal/Mol        Cal/Mol-Kelvin    Cal/Mol-Kelvin
 Total                   63.736             29.546             90.583
 Electronic               0.000              0.000              0.000
 Translational            0.889              2.981             41.062
 Rotational               0.889              2.981             30.060
 Vibrational             61.959             23.585             19.461
 Vibration     1          0.596              1.974              4.529
 Vibration     2          0.602              1.954              3.605
 Vibration     3          0.638              1.838              2.120
 Vibration     4          0.677              1.719              1.562
 Vibration     5          0.703              1.644              1.334
 Vibration     6          0.719              1.598              1.218
 Vibration     7          0.784              1.424              0.887
 Vibration     8          0.836              1.295              0.711
 Vibration     9          0.887              1.178              0.582
 Vibration    10          0.892              1.169              0.572

 Optimization completed.
    -- Stationary point found.
 Normal termination of Gaussian 16 at Sat Sep 16 07:26:05 2023.
