 Gaussian 16, Revision B.01,
 Gaussian 16:  EM64L-G16RevB.01 20-Dec-2017

 ----------------------------------------------------------------------
 # opt freq b3lyp/gen empiricaldispersion=gd3 pseudo=read scf=maxcycle=
 1000 volume
 ----------------------------------------------------------------------

 -------------------
 Title Card Required
 -------------------
 Symbolic Z-matrix:
 Charge =  0 Multiplicity = 1

 SCF Done:  E(RB3LYP) =  -321.169766878     A.U. after   14 cycles
 Optimization completed.
    -- Stationary point found.
 Normal termination of Gaussian 16 at Wed Sep 20 06:12:49 2023.

 ------------------------------------------------------------------
 #N Geom=AllCheck Guess=TCheck SCRF=Check GenChk RB3LYP/ChkBas Freq
 ------------------------------------------------------------------

 Structure from the checkpoint file:  "H-Br-vol.chk"
 -------------------
 Title Card Required
 -------------------
 Charge =  0 Multiplicity = 1

                         Standard orientation:
 ---------------------------------------------------------------------
 Center     Atomic      Atomic             Coordinates (Angstroms)
 Number     Number       Type             X           Y           Z
 ---------------------------------------------------------------------
      1          6           0       -3.479653   -1.210477   -0.000003
      2          6           0       -2.084833   -1.215230    0.000003
      3          6           0       -1.370935   -0.000018    0.000005
      4          6           0       -2.084809    1.215218    0.000003
      5          6           0       -3.479622    1.210498   -0.000003
      6          6           0       -4.181452    0.000015   -0.000007
      7          1           0       -4.019984   -2.153539   -0.000005
      8          1           0       -1.537131   -2.153068    0.000005
      9          1           0       -1.537076    2.153038    0.000005
     10          1           0       -4.019941    2.153567   -0.000005
     11          6           0        0.058647   -0.000018    0.000012
     12          6           0        1.271195    0.000001    0.000012
     13         35           0        3.099748    0.000001   -0.000003
     14          1           0       -5.268267    0.000032   -0.000011
 ---------------------------------------------------------------------

 SCF Done:  E(RB3LYP) =  -321.169766878     A.U. after    1 cycles

 The electronic state is 1-A.
 Alpha  occ. eigenvalues --  -10.23479 -10.22643 -10.20553 -10.20461 -10.20461
 Alpha  occ. eigenvalues --  -10.20295 -10.20229 -10.20214  -0.87653  -0.87018
 Alpha  occ. eigenvalues --   -0.79194  -0.76159  -0.73183  -0.63311  -0.62076
 Alpha  occ. eigenvalues --   -0.55265  -0.50439  -0.48248  -0.46822  -0.44702
 Alpha  occ. eigenvalues --   -0.43667  -0.39391  -0.37212  -0.36875  -0.36298
 Alpha  occ. eigenvalues --   -0.35816  -0.30641  -0.27064  -0.26809  -0.23893
 Alpha virt. eigenvalues --   -0.04543  -0.03116  -0.02343   0.00124   0.02240
 Alpha virt. eigenvalues --    0.02284   0.03087   0.03955   0.04271   0.05132
 Alpha virt. eigenvalues --    0.05270   0.05959   0.06255   0.06850   0.07079

 Mulliken charges:
               1
     1  C   -0.105380
     2  C   -0.173028
     3  C   -0.230994
     4  C   -0.173078
     5  C   -0.105377
     6  C   -0.169777
     7  H    0.183455
     8  H    0.193369
     9  H    0.193369
    10  H    0.183455
    11  C    0.451976
    12  C   -0.724823
    13  Br   0.295343
    14  H    0.181489
 Sum of Mulliken charges =   0.00000

 Dipole moment (field-independent basis, Debye):
    X=             -1.0264    Y=              0.0000    Z=              0.0000  Tot=              1.0264
 Quadrupole moment (field-independent basis, Debye-Ang):
   XX=            -49.5803   YY=            -56.6797   ZZ=            -65.4522
   XY=              0.0000   XZ=              0.0000   YZ=              0.0000

  Exact polarizability: 192.673   0.000  92.149   0.000   0.000  54.942
 Approx polarizability: 281.673   0.001 145.927   0.000   0.000  75.242

                      1                      2                      3
                      A                      A                      A
 Frequencies --     68.6791                72.7187               180.7151
 Red. masses --      6.2037                 7.0371                 7.3943
 Frc consts  --      0.0172                 0.0219                 0.1423
 IR Inten    --      0.9500                 2.0920                 2.2648

                      4                      5                      6
                      A                      A                      A
 Frequencies --    218.8234               263.1183               354.3192
 Red. masses --      9.1571                11.3684                 5.5733
 Frc consts  --      0.2583                 0.4637                 0.4122
 IR Inten    --      2.8926                 0.4712                 0.4529

                      7                      8                      9
                      A                      A                      A
 Frequencies --    412.7548               509.2792               543.9877
 Red. masses --      2.9107                 7.7251                 3.5823
 Frc consts  --      0.2922                 1.1805                 0.6246
 IR Inten    --      0.0000                 0.0235                15.2751

                     10                     11                     12
                      A                      A                      A
 Frequencies --    602.0148               633.7830               701.1918
 Red. masses --      8.6242                 6.5722                 1.9902
 Frc consts  --      1.8416                 1.5554                 0.5765
 IR Inten    --     13.0394                 0.0395                36.7773

                     13                     14                     15
                      A                      A                      A
 Frequencies --    768.7856               836.9323               855.2885
 Red. masses --      1.7238                 6.6053                 1.2473
 Frc consts  --      0.6003                 2.7260                 0.5376
 IR Inten    --     45.0192                 1.0526                 0.0000

                     16                     17                     18
                      A                      A                      A
 Frequencies --    931.4771               981.0341              1003.5324
 Red. masses --      1.3972                 1.3656                 1.2832
 Frc consts  --      0.7143                 0.7743                 0.7614
 IR Inten    --      2.3666                 0.0000                 0.0270

                     19                     20                     21
                      A                      A                      A
 Frequencies --   1012.7138              1053.3398              1109.5192
 Red. masses --      6.2730                 2.2033                 1.6210
 Frc consts  --      3.7905                 1.4403                 1.1757
 IR Inten    --      0.0790                 3.7866                 4.6363

                     22                     23                     24
                      A                      A                      A
 Frequencies --   1200.2791              1216.6212              1256.1122
 Red. masses --      1.1089                 1.1400                 4.1256
 Frc consts  --      0.9412                 0.9942                 3.8353
 IR Inten    --      0.0105                 0.0234                 0.1364

                     25                     26                     27
                      A                      A                      A
 Frequencies --   1327.3376              1364.1401              1482.3664
 Red. masses --      3.3326                 1.6838                 2.1775
 Frc consts  --      3.4594                 1.8461                 2.8191
 IR Inten    --      0.0997                 0.4017                 4.4020

                     28                     29                     30
                      A                      A                      A
 Frequencies --   1534.0273              1619.4026              1650.4167
 Red. masses --      2.1944                 5.0441                 5.3283
 Frc consts  --      3.0425                 7.7937                 8.5511
 IR Inten    --     14.7675                 1.0451                 6.9201

                     31                     32                     33
                      A                      A                      A
 Frequencies --   2299.3867              3182.8526              3191.8232
 Red. masses --     12.0040                 1.0857                 1.0887
 Frc consts  --     37.3939                 6.4800                 6.5346
 IR Inten    --     27.4608                 0.7015                 5.5235

                     34                     35                     36
                      A                      A                      A
 Frequencies --   3202.8507              3210.6467              3215.0613
 Red. masses --      1.0922                 1.0943                 1.0975
 Frc consts  --      6.6009                 6.6463                 6.6840
 IR Inten    --     20.1996                23.3391                 7.6246

 - Thermochemistry -
 -------------------
 Temperature   298.150 Kelvin.  Pressure   1.00000 Atm.
 Atom     1 has atomic number  6 and mass  12.00000

 Molecular mass:   179.95746 amu.
 Principal axes and moments of inertia in atomic units:
                           1         2         3
     Eigenvalues --   318.900275212.274815531.17508
           X            1.00000   0.00000   0.00000
           Y            0.00000   1.00000   0.00000
           Z            0.00000   0.00000   1.00000
 This molecule is an asymmetric top.
 Rotational symmetry number  1.
 Rotational temperatures (Kelvin)      0.27160     0.01662     0.01566
 Rotational constants (GHZ):           5.65927     0.34625     0.32629
 Zero-point vibrational energy     263581.2 (Joules/Mol)
                                   62.99741 (Kcal/Mol)
 Warning -- explicit consideration of  10 degrees of freedom as
           vibrations may cause significant error
 Vibrational temperatures:     98.81   104.63   260.01   314.84   378.57
          (Kelvin)            509.79   593.86   732.74   782.68   866.17
                              911.87  1008.86  1106.11  1204.16  1230.57
                             1340.19  1411.49  1443.86  1457.07  1515.52
                             1596.35  1726.93  1750.45  1807.27  1909.74
                             1962.69  2132.79  2207.12  2329.96  2374.58
                             3308.30  4579.42  4592.32  4608.19  4619.40
                             4625.76

 Zero-point correction=                           0.100393 (Hartree/Particle)
 Thermal correction to Energy=                    0.108392
 Thermal correction to Enthalpy=                  0.109336
 Thermal correction to Gibbs Free Energy=         0.065632
 Sum of electronic and zero-point Energies=           -321.069374
 Sum of electronic and thermal Energies=              -321.061375
 Sum of electronic and thermal Enthalpies=            -321.060430
 Sum of electronic and thermal Free Energies=         -321.104135

                     E (Thermal)             CV                S
                      KCal/Mol        Cal/Mol-Kelvin    Cal/Mol-Kelvin
 Total                   68.017             28.638             91.985
 Electronic               0.000              0.000              0.000
 Translational            0.889              2.981             41.469
 Rotational               0.889              2.981             30.598
 Vibrational             66.240             22.677             19.917
 Vibration     1          0.598              1.969              4.191
 Vibration     2          0.599              1.967              4.078
 Vibration     3          0.630              1.866              2.321
 Vibration     4          0.647              1.812              1.969
 Vibration     5          0.670              1.740              1.641
 Vibration     6          0.730              1.566              1.147
 Vibration     7          0.777              1.443              0.917
 Vibration     8          0.864              1.229              0.635
 Vibration     9          0.899              1.153              0.557
 Vibration    10          0.960              1.028              0.446

 Optimization completed.
    -- Stationary point found.
 Normal termination of Gaussian 16 at Wed Sep 20 06:13:43 2023.
