 Gaussian 16, Revision B.01,
 Gaussian 16:  EM64L-G16RevB.01 20-Dec-2017

 ----------------------------------------------------------------------
 # opt freq b3lyp/gen empiricaldispersion=gd3 pseudo=read scf=maxcycle=
 1000 volume
 ----------------------------------------------------------------------

 -------------------
 Title Card Required
 -------------------
 Symbolic Z-matrix:
 Charge =  0 Multiplicity = 1

 SCF Done:  E(RB3LYP) =  -337.203163277     A.U. after   15 cycles
 SCF Done:  E(RB3LYP) =  -337.203163199     A.U. after   10 cycles
 SCF Done:  E(RB3LYP) =  -337.203163264     A.U. after   10 cycles
 SCF Done:  E(RB3LYP) =  -337.203163318     A.U. after    9 cycles
 Optimization completed.
    -- Stationary point found.
 Normal termination of Gaussian 16 at Tue Sep 19 07:15:43 2023.

 ------------------------------------------------------------------
 #N Geom=AllCheck Guess=TCheck SCRF=Check GenChk RB3LYP/ChkBas Freq
 ------------------------------------------------------------------

 Structure from the checkpoint file:  "o-py-vol.chk"
 -------------------
 Title Card Required
 -------------------
 Charge =  0 Multiplicity = 1

                         Standard orientation:
 ---------------------------------------------------------------------
 Center     Atomic      Atomic             Coordinates (Angstroms)
 Number     Number       Type             X           Y           Z
 ---------------------------------------------------------------------
      1          6           0        3.481699    1.185532   -0.000167
      2          6           0        2.088614    1.207506   -0.000080
      3          6           0        1.393293   -0.016890   -0.000034
      4          6           0        3.355405   -1.210436   -0.000177
      5          1           0        4.045480    2.114669   -0.000197
      6          1           0        1.536829    2.142279   -0.000043
      7          1           0        3.828062   -2.190999   -0.000210
      8          6           0       -0.040765   -0.024968    0.000054
      9          6           0       -1.251947    0.003782    0.000119
     10         35           0       -3.078068   -0.001088    0.000126
     11          6           0        4.135251   -0.048414   -0.000220
     12          1           0        5.219324   -0.115077   -0.000290
     13          7           0        2.019057   -1.212782   -0.000093
 ---------------------------------------------------------------------

 SCF Done:  E(RB3LYP) =  -337.203163318     A.U. after    1 cycles

 The electronic state is 1-A.
 Alpha  occ. eigenvalues --  -14.34795 -10.26034 -10.24045 -10.23537 -10.22188
 Alpha  occ. eigenvalues --  -10.21492 -10.21230 -10.20731  -0.96145  -0.87613
 Alpha  occ. eigenvalues --   -0.82131  -0.80381  -0.74311  -0.65809  -0.64785
 Alpha  occ. eigenvalues --   -0.56356  -0.51173  -0.50077  -0.48872  -0.45359
 Alpha  occ. eigenvalues --   -0.42402  -0.42237  -0.39112  -0.36929  -0.36706
 Alpha  occ. eigenvalues --   -0.31564  -0.30016  -0.27512  -0.27443  -0.24992
 Alpha virt. eigenvalues --   -0.05912  -0.04025  -0.03274  -0.00265   0.01877
 Alpha virt. eigenvalues --    0.02381   0.03067   0.04069   0.04242   0.05024
 Alpha virt. eigenvalues --    0.05201   0.05923   0.06006   0.06499   0.06551

 Mulliken charges:
               1
     1  C   -0.357406
     2  C   -0.006012
     3  C   -0.056034
     4  C   -0.202689
     5  H    0.192745
     6  H    0.201405
     7  H    0.182753
     8  C    0.402960
     9  C   -0.739219
    10  Br   0.295132
    11  C    0.032850
    12  H    0.190036
    13  N   -0.136521
 Sum of Mulliken charges =   0.00000

 Dipole moment (field-independent basis, Debye):
    X=              1.6953    Y=              1.9872    Z=             -0.0002  Tot=              2.6121
 Quadrupole moment (field-independent basis, Debye-Ang):
   XX=            -42.4971   YY=            -59.7017   ZZ=            -63.4210
   XY=              2.4490   XZ=             -0.0009   YZ=             -0.0001

  Exact polarizability: 187.940  -0.791  85.556  -0.007   0.000  51.554
 Approx polarizability: 274.890  -1.814 136.902  -0.011   0.001  70.768

                      1                      2                      3
                      A                      A                      A
 Frequencies --     68.9214                73.6331               185.9029
 Red. masses --      6.9809                 7.0292                 7.8160
 Frc consts  --      0.0195                 0.0225                 0.1592
 IR Inten    --      2.5977                 3.2591                 0.7891

                      4                      5                      6
                      A                      A                      A
 Frequencies --    228.5925               267.6928               333.0434
 Red. masses --      9.7321                13.3990                 5.9019
 Frc consts  --      0.2996                 0.5657                 0.3857
 IR Inten    --      1.2360                 0.7337                 0.7741

                      7                      8                      9
                      A                      A                      A
 Frequencies --    414.8100               517.9619               546.6747
 Red. masses --      3.6171                 8.5544                 3.2765
 Frc consts  --      0.3667                 1.3522                 0.5769
 IR Inten    --      4.1752                 0.7307                 7.1851

                     10                     11                     12
                      A                      A                      A
 Frequencies --    623.3877               646.1376               751.8847
 Red. masses --      8.9008                 7.4570                 1.8920
 Frc consts  --      2.0380                 1.8343                 0.6302
 IR Inten    --     15.8967                 4.1069                16.6534

                     13                     14                     15
                      A                      A                      A
 Frequencies --    795.6599               857.4686               907.1468
 Red. masses --      2.1277                 6.9595                 1.3258
 Frc consts  --      0.7936                 3.0149                 0.6428
 IR Inten    --     40.7952                 0.8978                 0.8180

                     16                     17                     18
                      A                      A                      A
 Frequencies --    981.4662              1004.6122              1010.7831
 Red. masses --      1.4111                 7.2361                 1.3171
 Frc consts  --      0.8008                 4.3028                 0.7929
 IR Inten    --      0.3596                 4.5293                 0.0239

                     19                     20                     21
                      A                      A                      A
 Frequencies --   1071.1694              1122.7080              1190.0143
 Red. masses --      2.3196                 1.5914                 1.1361
 Frc consts  --      1.5681                 1.1818                 0.9479
 IR Inten    --      3.8776                 2.8823                 5.3597

                     22                     23                     24
                      A                      A                      A
 Frequencies --   1272.0974              1299.0884              1328.0823
 Red. masses --      3.8504                 4.3959                 1.7673
 Frc consts  --      3.6711                 4.3709                 1.8365
 IR Inten    --     13.5786                 6.0185                 0.5848

                     25                     26                     27
                      A                      A                      A
 Frequencies --   1464.3835              1504.3772              1610.8735
 Red. masses --      2.0141                 2.2612                 5.1435
 Frc consts  --      2.5447                 3.0151                 7.8638
 IR Inten    --     25.6208                52.3465                21.4079

                     28                     29                     30
                      A                      A                      A
 Frequencies --   1632.3017              2305.2573              3176.4003
 Red. masses --      5.2738                12.0031                 1.0892
 Frc consts  --      8.2789                37.5821                 6.4746
 IR Inten    --     66.6488               101.5348                19.4232

                     31                     32                     33
                      A                      A                      A
 Frequencies --   3194.0957              3212.1186              3220.0712
 Red. masses --      1.0888                 1.0937                 1.0972
 Frc consts  --      6.5448                 6.6483                 6.7032
 IR Inten    --      7.6207                20.5006                 7.3711

 - Thermochemistry -
 -------------------
 Temperature   298.150 Kelvin.  Pressure   1.00000 Atm.
 Atom     1 has atomic number  6 and mass  12.00000

 Molecular mass:   180.95271 amu.
 Principal axes and moments of inertia in atomic units:
                           1         2         3
     Eigenvalues --   309.021115129.545025438.56612
           X            1.00000   0.00242   0.00005
           Y           -0.00242   1.00000  -0.00001
           Z           -0.00005   0.00001   1.00000
 This molecule is an asymmetric top.
 Rotational symmetry number  1.
 Rotational temperatures (Kelvin)      0.28028     0.01689     0.01593
 Rotational constants (GHZ):           5.84019     0.35183     0.33184
 Zero-point vibrational energy     232188.1 (Joules/Mol)
                                   55.49429 (Kcal/Mol)
 Warning -- explicit consideration of   9 degrees of freedom as
           vibrations may cause significant error
 Vibrational temperatures:     99.16   105.94   267.47   328.89   385.15
          (Kelvin)            479.18   596.82   745.23   786.54   896.92
                              929.65  1081.79  1144.78  1233.71  1305.18
                             1412.11  1445.41  1454.29  1541.17  1615.33
                             1712.17  1830.26  1869.10  1910.81  2106.92
                             2164.46  2317.69  2348.52  3316.75  4570.13
                             4595.59  4621.52  4632.96

 Zero-point correction=                           0.088436 (Hartree/Particle)
 Thermal correction to Energy=                    0.096294
 Thermal correction to Enthalpy=                  0.097238
 Thermal correction to Gibbs Free Energy=         0.053777
 Sum of electronic and zero-point Energies=           -337.114728
 Sum of electronic and thermal Energies=              -337.106869
 Sum of electronic and thermal Enthalpies=            -337.105925
 Sum of electronic and thermal Free Energies=         -337.149386

                     E (Thermal)             CV                S
                      KCal/Mol        Cal/Mol-Kelvin    Cal/Mol-Kelvin
 Total                   60.426             27.671             91.472
 Electronic               0.000              0.000              0.000
 Translational            0.889              2.981             41.486
 Rotational               0.889              2.981             30.534
 Vibrational             58.648             21.709             19.452
 Vibration     1          0.598              1.969              4.184
 Vibration     2          0.599              1.966              4.054
 Vibration     3          0.632              1.859              2.268
 Vibration     4          0.651              1.797              1.890
 Vibration     5          0.673              1.732              1.611
 Vibration     6          0.715              1.610              1.245
 Vibration     7          0.778              1.438              0.910
 Vibration     8          0.873              1.210              0.615
 Vibration     9          0.902              1.147              0.551

 Optimization completed.
    -- Stationary point found.
 Normal termination of Gaussian 16 at Tue Sep 19 07:16:26 2023.
