 Gaussian 16, Revision B.01,
 Gaussian 16:  EM64L-G16RevB.01 20-Dec-2017

 ----------------------------------------------------------------------
 # opt freq rb3lyp/gen nosymm empiricaldispersion=gd3 pseudo=read scf=m
 axcycle=1000 volume
 ----------------------------------------------------------------------

 -----
 reac1
 -----
 Symbolic Z-matrix:
 Charge =  0 Multiplicity = 1

 SCF Done:  E(RB3LYP) =  -259.106203458     A.U. after   15 cycles
 Optimization completed.
    -- Stationary point found.
 Normal termination of Gaussian 16 at Wed Sep 13 08:49:02 2023.

 ------------------------------------------------------------------
 #N Geom=AllCheck Guess=TCheck SCRF=Check GenChk RB3LYP/ChkBas Freq
 ------------------------------------------------------------------

 Structure from the checkpoint file:  "ARYLHALIDE-pyridine-gen-vol.chk"
 -----
 reac1
 -----
 Charge =  0 Multiplicity = 1

                          Input orientation:
 ---------------------------------------------------------------------
 Center     Atomic      Atomic             Coordinates (Angstroms)
 Number     Number       Type             X           Y           Z
 ---------------------------------------------------------------------
      1          6           0       -0.453176   -0.002449   -0.000116
      2          6           0        0.254511    1.204569    0.000039
      3          6           0        0.244914   -1.209485   -0.000164
      4          1           0       -0.266302    2.158573    0.000079
      5          6           0        1.641014   -1.156035   -0.000055
      6          1           0       -0.277031   -2.161081   -0.000283
      7          6           0        2.264928    0.093934    0.000097
      8          1           0        2.230880   -2.068475   -0.000087
      9         53           0       -2.597145    0.018637   -0.000274
     10          1           0        3.350004    0.172733    0.000185
     11          7           0        1.592083    1.252365    0.000143
 ---------------------------------------------------------------------

 SCF Done:  E(RB3LYP) =  -259.106203458     A.U. after    1 cycles

 Alpha  occ. eigenvalues --  -14.35513 -10.25899 -10.24491 -10.23991 -10.23161
 Alpha  occ. eigenvalues --  -10.21980  -0.96504  -0.83350  -0.79119  -0.70850
 Alpha  occ. eigenvalues --   -0.65496  -0.63221  -0.54367  -0.50771  -0.47524
 Alpha  occ. eigenvalues --   -0.43191  -0.42743  -0.42249  -0.37062  -0.32550
 Alpha  occ. eigenvalues --   -0.29974  -0.28458  -0.27448  -0.25825
 Alpha virt. eigenvalues --   -0.05377  -0.05266  -0.03976   0.00266   0.01758
 Alpha virt. eigenvalues --    0.02479   0.03831   0.04377   0.04707   0.05681
 Alpha virt. eigenvalues --    0.06785   0.06878   0.08151   0.08293   0.10654

 Mulliken charges:
               1
     1  C    0.505995
     2  C   -0.347325
     3  C   -0.539189
     4  H    0.196172
     5  C   -0.052841
     6  H    0.206880
     7  C   -0.319232
     8  H    0.193732
     9  I    0.098956
    10  H    0.187779
    11  N   -0.130927
 Sum of Mulliken charges =   0.00000

 Dipole moment (field-independent basis, Debye):
    X=              0.4832    Y=             -2.0694    Z=             -0.0001  Tot=              2.1251
 Quadrupole moment (field-independent basis, Debye-Ang):
   XX=            -53.2353   YY=            -54.1181   ZZ=            -58.1763
   XY=             -5.0341   XZ=             -0.0001   YZ=              0.0001

  Exact polarizability: 134.998  -2.154  83.720   0.006   0.003  51.218
 Approx polarizability: 199.762  -1.147 135.697   0.010   0.005  69.232

                      1                      2                      3
                      A                      A                      A
 Frequencies --    152.9871               223.0928               258.7492
 Red. masses --      4.5269                 5.5864                10.4759
 Frc consts  --      0.0624                 0.1638                 0.4132
 IR Inten    --      0.0892                 0.4744                 1.6598

                      4                      5                      6
                      A                      A                      A
 Frequencies --    404.8242               451.9454               618.3467
 Red. masses --      2.9963                 4.3942                 7.8975
 Frc consts  --      0.2893                 0.5288                 1.7791
 IR Inten    --      3.6472                 0.5329                 5.5821

                      7                      8                      9
                      A                      A                      A
 Frequencies --    694.9574               713.3221               803.9834
 Red. masses --      7.4791                 2.4564                 1.4429
 Frc consts  --      2.1282                 0.7364                 0.5495
 IR Inten    --     19.8873                27.8287                25.9794

                     10                     11                     12
                      A                      A                      A
 Frequencies --    943.1089               964.9623              1000.4650
 Red. masses --      1.3390                 1.3622                 1.3909
 Frc consts  --      0.7017                 0.7473                 0.8203
 IR Inten    --      0.3504                 0.1693                 0.0503

                     13                     14                     15
                      A                      A                      A
 Frequencies --   1009.8112              1054.7796              1101.2821
 Red. masses --      7.7974                 4.9920                 1.9416
 Frc consts  --      4.6847                 3.2722                 1.3874
 IR Inten    --     78.8960                 0.2713                22.9958

                     16                     17                     18
                      A                      A                      A
 Frequencies --   1148.6590              1234.4474              1288.7298
 Red. masses --      1.5643                 1.4140                 6.9286
 Frc consts  --      1.2160                 1.2695                 6.7798
 IR Inten    --      4.1906                 1.6982                 0.1440

                     19                     20                     21
                      A                      A                      A
 Frequencies --   1369.3105              1453.2068              1501.4192
 Red. masses --      1.2631                 2.0508                 1.9011
 Frc consts  --      1.3954                 2.5516                 2.5250
 IR Inten    --      5.9674                25.2464                19.7074

                     22                     23                     24
                      A                      A                      A
 Frequencies --   1604.0325              1613.1032              3184.4040
 Red. masses --      5.6562                 5.2007                 1.0883
 Frc consts  --      8.5744                 7.9732                 6.5019
 IR Inten    --      5.2400                12.8259                10.9118

                     25                     26                     27
                      A                      A                      A
 Frequencies --   3200.4296              3205.1954              3222.2211
 Red. masses --      1.0917                 1.0928                 1.0958
 Frc consts  --      6.5880                 6.6144                 6.7037
 IR Inten    --      9.3752                10.2800                 6.6471

 - Thermochemistry -
 -------------------
 Temperature   298.150 Kelvin.  Pressure   1.00000 Atm.
 Atom     1 has atomic number  6 and mass  12.00000

 Molecular mass:   204.93477 amu.
 Principal axes and moments of inertia in atomic units:
                           1         2         3
     Eigenvalues --   309.623702460.618202770.24190
           X            0.99998  -0.00676  -0.00007
           Y            0.00676   0.99998  -0.00008
           Z            0.00008   0.00008   1.00000
 This molecule is an asymmetric top.
 Rotational symmetry number  1.
 Rotational temperatures (Kelvin)      0.27974     0.03520     0.03127
 Rotational constants (GHZ):           5.82882     0.73345     0.65147
 Zero-point vibrational energy     205887.9 (Joules/Mol)
                                   49.20840 (Kcal/Mol)
 Warning -- explicit consideration of   6 degrees of freedom as
           vibrations may cause significant error
 Vibrational temperatures:    220.11   320.98   372.28   582.45   650.25
          (Kelvin)            889.66   999.89  1026.31  1156.75  1356.92
                             1388.37  1439.45  1452.89  1517.59  1584.50
                             1652.66  1776.09  1854.19  1970.13  2090.84
                             2160.21  2307.84  2320.90  4581.65  4604.70
                             4611.56  4636.06

 Zero-point correction=                           0.078419 (Hartree/Particle)
 Thermal correction to Energy=                    0.084193
 Thermal correction to Enthalpy=                  0.085137
 Thermal correction to Gibbs Free Energy=         0.046692
 Sum of electronic and zero-point Energies=           -259.027785
 Sum of electronic and thermal Energies=              -259.022011
 Sum of electronic and thermal Enthalpies=            -259.021067
 Sum of electronic and thermal Free Energies=         -259.059512

                     E (Thermal)             CV                S
                      KCal/Mol        Cal/Mol-Kelvin    Cal/Mol-Kelvin
 Total                   52.832             20.676             80.915
 Electronic               0.000              0.000              0.000
 Translational            0.889              2.981             41.857
 Rotational               0.889              2.981             29.136
 Vibrational             51.054             14.714              9.922
 Vibration     1          0.619              1.899              2.635
 Vibration     2          0.649              1.806              1.934
 Vibration     3          0.668              1.748              1.670
 Vibration     4          0.770              1.460              0.945
 Vibration     5          0.811              1.357              0.790
 Vibration     6          0.978              0.993              0.419

 Optimization completed.
    -- Stationary point found.
 Normal termination of Gaussian 16 at Wed Sep 13 08:49:32 2023.
