 Gaussian 16, Revision B.01,
 Gaussian 16:  EM64L-G16RevB.01 20-Dec-2017

 ----------------------------------------------------------------------
 # opt freq rb3lyp/gen nosymm empiricaldispersion=gd3 pseudo=read scf=m
 axcycle=1000 volume
 ----------------------------------------------------------------------

 -----
 reac1
 -----
 Symbolic Z-matrix:
 Charge =  0 Multiplicity = 1

 SCF Done:  E(RB3LYP) =  -282.391851787     A.U. after   15 cycles
 Optimization completed.
    -- Stationary point found.

 1\1\GINC-IP-172-31-38-84\FOpt\RB3LYP\Gen\C7H7I1\UBUNTU\13-Sep-2023\0\\
 # opt freq rb3lyp/gen nosymm empiricaldispersion=gd3 pseudo=read scf=m
 axcycle=1000 volume\\reac1\\0,1\C,-0.464649,0.017335,-0.006539\C,0.203
 277,1.243409,-0.000458\C,0.246956,-1.181883,-0.000495\C,1.600482,1.257
 67,0.010316\H,-0.350251,2.176861,-0.001352\C,1.645647,-1.144686,0.0103
 17\H,-0.271082,-2.135465,-0.001401\C,2.345207,0.069042,0.013982\H,2.11
 7216,2.21534,0.017576\H,2.196282,-2.082935,0.017167\I,-2.615142,-0.020
 901,-0.019382\C,3.856587,0.104775,-0.002691\H,4.232955,0.340928,-1.006

 Normal termination of Gaussian 16 at Wed Sep 13 08:06:06 2023.

 ------------------------------------------------------------------
 #N Geom=AllCheck Guess=TCheck SCRF=Check GenChk RB3LYP/ChkBas Freq
 ------------------------------------------------------------------

 Structure from the checkpoint file:  "ARYLHALIDE-ch3-gen-volume.chk"
 -----
 reac1
 -----
 Charge =  0 Multiplicity = 1

                          Input orientation:
 ---------------------------------------------------------------------
 Center     Atomic      Atomic             Coordinates (Angstroms)
 Number     Number       Type             X           Y           Z
 ---------------------------------------------------------------------
      1          6           0       -0.464649    0.017335   -0.006539
      2          6           0        0.203277    1.243409   -0.000458
      3          6           0        0.246956   -1.181883   -0.000495
      4          6           0        1.600482    1.257670    0.010316
      5          1           0       -0.350251    2.176861   -0.001352
      6          6           0        1.645647   -1.144686    0.010317
      7          1           0       -0.271082   -2.135465   -0.001401
      8          6           0        2.345207    0.069042    0.013982
      9          1           0        2.117216    2.215340    0.017576
     10          1           0        2.196282   -2.082935    0.017167
     11         53           0       -2.615142   -0.020901   -0.019382
     12          6           0        3.856587    0.104775   -0.002691
     13          1           0        4.232955    0.340928   -1.006976
     14          1           0        4.245937    0.870362    0.678568
     15          1           0        4.284894   -0.859134    0.292084
 ---------------------------------------------------------------------

 SCF Done:  E(RB3LYP) =  -282.391851787     A.U. after    1 cycles

 Alpha  occ. eigenvalues --  -10.24392 -10.21134 -10.20735 -10.20710 -10.20194
 Alpha  occ. eigenvalues --  -10.20176 -10.18961  -0.87609  -0.79388  -0.76340
 Alpha  occ. eigenvalues --   -0.71910  -0.66985  -0.62573  -0.59186  -0.50618
 Alpha  occ. eigenvalues --   -0.48005  -0.46722  -0.43918  -0.43283  -0.40062
 Alpha  occ. eigenvalues --   -0.40027  -0.37833  -0.35987  -0.34206  -0.29163
 Alpha  occ. eigenvalues --   -0.26891  -0.26886  -0.23952
 Alpha virt. eigenvalues --   -0.04362  -0.02779  -0.02433   0.00510   0.01514
 Alpha virt. eigenvalues --    0.01981   0.03734   0.04370   0.04653   0.05061
 Alpha virt. eigenvalues --    0.05693   0.06430   0.06708   0.08423   0.09215

 Mulliken charges:
               1
     1  C    0.632714
     2  C   -0.315395
     3  C   -0.370592
     4  C   -0.214015
     5  H    0.195247
     6  C   -0.630909
     7  H    0.195050
     8  C    0.346079
     9  H    0.179641
    10  H    0.178442
    11  I    0.059525
    12  C   -0.905813
    13  H    0.228180
    14  H    0.215074
    15  H    0.206773
 Sum of Mulliken charges =   0.00000

 Dipole moment (field-independent basis, Debye):
    X=              2.3355    Y=              0.0746    Z=             -0.0208  Tot=              2.3368
 Quadrupole moment (field-independent basis, Debye-Ang):
   XX=            -58.1115   YY=            -57.8361   ZZ=            -66.5256
   XY=              0.1667   XZ=             -0.0863   YZ=             -0.0005

  Exact polarizability: 162.816   1.609 100.009   0.066  -0.001  64.782
 Approx polarizability: 220.901   1.890 161.112   0.170  -0.003  89.723

 ******    1 imaginary frequencies (negative Signs) ******

                      1                      2                      3
                      A                      A                      A
 Frequencies --     -9.5884                96.4730               192.3004
 Red. masses --      1.0459                 4.2113                 4.7414
 Frc consts  --      0.0001                 0.0231                 0.1033
 IR Inten    --      0.2627                 0.5168                 0.1529

                      4                      5                      6
                      A                      A                      A
 Frequencies --    237.1207               278.6759               370.5338
 Red. masses --      9.5235                 4.0957                 2.7332
 Frc consts  --      0.3155                 0.1874                 0.2211
 IR Inten    --      1.1542                 0.1059                 0.0796

                      7                      8                      9
                      A                      A                      A
 Frequencies --    414.8025               483.2951               575.5145
 Red. masses --      2.9167                 2.8023                 5.5706
 Frc consts  --      0.2957                 0.3857                 1.0871
 IR Inten    --      0.0074                19.3063                 9.1957

                     10                     11                     12
                      A                      A                      A
 Frequencies --    643.5233               701.6968               799.9950
 Red. masses --      6.9573                 3.5622                 4.3355
 Frc consts  --      1.6975                 1.0334                 1.6348
 IR Inten    --      0.0766                 0.0958                17.7336

                     13                     14                     15
                      A                      A                      A
 Frequencies --    814.0656               840.7625               960.8144
 Red. masses --      1.3824                 1.2497                 1.2796
 Frc consts  --      0.5398                 0.5205                 0.6960
 IR Inten    --     45.3906                 0.0267                 0.1668

                     16                     17                     18
                      A                      A                      A
 Frequencies --    976.4654              1013.8103              1022.2770
 Red. masses --      1.3640                 4.7383                 1.5147
 Frc consts  --      0.7662                 2.8694                 0.9326
 IR Inten    --      0.0018                47.0095                11.6409

                     19                     20                     21
                      A                      A                      A
 Frequencies --   1073.6586              1081.6257              1153.1610
 Red. masses --      1.5232                 2.5261                 1.3812
 Frc consts  --      1.0345                 1.7412                 1.0822
 IR Inten    --      8.0165                11.5544                 4.5141

                     22                     23                     24
                      A                      A                      A
 Frequencies --   1230.0643              1234.5182              1328.8712
 Red. masses --      1.1354                 3.1444                 6.0056
 Frc consts  --      1.0121                 2.8234                 6.2484
 IR Inten    --      1.2709                10.0729                 0.2552

                     25                     26                     27
                      A                      A                      A
 Frequencies --   1346.4357              1435.2089              1440.5315
 Red. masses --      1.3581                 2.3429                 1.2377
 Frc consts  --      1.4506                 2.8434                 1.5132
 IR Inten    --      0.6747                 4.0533                 0.5286

                     28                     29                     30
                      A                      A                      A
 Frequencies --   1510.9943              1515.3621              1529.9778
 Red. masses --      1.0596                 1.0905                 2.1776
 Frc consts  --      1.4254                 1.4754                 3.0034
 IR Inten    --      8.7647                11.3246                52.9633

                     31                     32                     33
                      A                      A                      A
 Frequencies --   1617.0638              1640.9668              3037.7795
 Red. masses --      5.7559                 5.3458                 1.0390
 Frc consts  --      8.8679                 8.4813                 5.6489
 IR Inten    --      0.8119                 4.2116                35.5721

                     34                     35                     36
                      A                      A                      A
 Frequencies --   3092.1883              3117.8068              3177.1036
 Red. masses --      1.0980                 1.1021                 1.0892
 Frc consts  --      6.1854                 6.3120                 6.4775
 IR Inten    --     17.7933                17.0555                15.0697

                     37                     38                     39
                      A                      A                      A
 Frequencies --   3180.1387              3216.1087              3217.1046
 Red. masses --      1.0892                 1.0930                 1.0937
 Frc consts  --      6.4900                 6.6606                 6.6695
 IR Inten    --     14.6427                 9.0215                 0.5807

 - Thermochemistry -
 -------------------
 Temperature   298.150 Kelvin.  Pressure   1.00000 Atm.
 Atom     1 has atomic number  6 and mass  12.00000

 Molecular mass:   217.95518 amu.
 Principal axes and moments of inertia in atomic units:
                           1         2         3
     Eigenvalues --   327.806633779.271564095.79523
           X            0.99981  -0.01885  -0.00481
           Y            0.01885   0.99982  -0.00008
           Z            0.00481  -0.00001   0.99999
 This molecule is an asymmetric top.
 Rotational symmetry number  1.
 Rotational temperatures (Kelvin)      0.26422     0.02292     0.02115
 Rotational constants (GHZ):           5.50551     0.47754     0.44063
    1 imaginary frequencies ignored.
 Zero-point vibrational energy     308629.3 (Joules/Mol)
                                   73.76418 (Kcal/Mol)
 Warning -- explicit consideration of   8 degrees of freedom as
           vibrations may cause significant error
 Vibrational temperatures:    138.80   276.68   341.16   400.95   533.12
          (Kelvin)            596.81   695.35   828.04   925.89  1009.59
                             1151.01  1171.26  1209.67  1382.40  1404.92
                             1458.65  1470.83  1544.76  1556.22  1659.14
                             1769.79  1776.20  1911.95  1937.22  2064.95
                             2072.60  2173.98  2180.27  2201.30  2326.59
                             2360.99  4370.69  4448.97  4485.83  4571.14
                             4575.51  4627.26  4628.70

 Zero-point correction=                           0.117551 (Hartree/Particle)
 Thermal correction to Energy=                    0.124472
 Thermal correction to Enthalpy=                  0.125416
 Thermal correction to Gibbs Free Energy=         0.084384
 Sum of electronic and zero-point Energies=           -282.274301
 Sum of electronic and thermal Energies=              -282.267380
 Sum of electronic and thermal Enthalpies=            -282.266436
 Sum of electronic and thermal Free Energies=         -282.307468

                     E (Thermal)             CV                S
                      KCal/Mol        Cal/Mol-Kelvin    Cal/Mol-Kelvin
 Total                   78.107             25.736             86.360
 Electronic               0.000              0.000              0.000
 Translational            0.889              2.981             42.040
 Rotational               0.889              2.981             30.007
 Vibrational             76.330             19.774             14.312
 Vibration     1          0.603              1.952              3.524
 Vibration     2          0.634              1.851              2.206
 Vibration     3          0.656              1.784              1.824
 Vibration     4          0.679              1.713              1.542
 Vibration     5          0.743              1.533              1.078
 Vibration     6          0.778              1.438              0.910
 Vibration     7          0.839              1.287              0.701
 Vibration     8          0.932              1.084              0.494

                           ! Non-Optimized Parameters !

 1\1\GINC-IP-172-31-38-84\Freq\RB3LYP\Gen\C7H7I1\UBUNTU\13-Sep-2023\0\\
 #N Geom=AllCheck Guess=TCheck SCRF=Check GenChk RB3LYP/ChkBas Freq\\re
 ac1\\0,1\C,-0.464649,0.017335,-0.006539\C,0.203277,1.243409,-0.000458\
 C,0.246956,-1.181883,-0.000495\C,1.600482,1.25767,0.010316\H,-0.350251
 ,2.176861,-0.001352\C,1.645647,-1.144686,0.010317\H,-0.271082,-2.13546
 5,-0.001401\C,2.345207,0.069042,0.013982\H,2.117216,2.21534,0.017576\H
 ,2.196282,-2.082935,0.017167\I,-2.615142,-0.020901,-0.019382\C,3.85658
 7,0.104775,-0.002691\H,4.232955,0.340928,-1.006976\H,4.245937,0.870362

 Normal termination of Gaussian 16 at Wed Sep 13 08:06:52 2023.
