 Gaussian 16, Revision B.01,
 Gaussian 16:  EM64L-G16RevB.01 20-Dec-2017

 ----------------------------------------------------------------------
 # opt freq b3lyp/gen empiricaldispersion=gd3 pseudo=read scf=maxcycle=
 1000 volume
 ----------------------------------------------------------------------

 -------------------
 Title Card Required
 -------------------
 Symbolic Z-matrix:
 Charge =  0 Multiplicity = 1

 SCF Done:  E(RB3LYP) =  -298.429767068     A.U. after   14 cycles
 Optimization completed.
    -- Stationary point found.
 Normal termination of Gaussian 16 at Sat Sep 16 07:23:47 2023.

 ------------------------------------------------------------------
 #N Geom=AllCheck Guess=TCheck SCRF=Check GenChk RB3LYP/ChkBas Freq
 ------------------------------------------------------------------

 Structure from the checkpoint file:  "ARyLHALIDENh2-SOL-disp-g16-gas-gen-vol.chk"
 -------------------
 Title Card Required
 -------------------
 Charge =  0 Multiplicity = 1

                         Standard orientation:
 ---------------------------------------------------------------------
 Center     Atomic      Atomic             Coordinates (Angstroms)
 Number     Number       Type             X           Y           Z
 ---------------------------------------------------------------------
      1          6           0       -2.280122    1.207695   -0.005842
      2          6           0       -3.000103    0.000078   -0.005226
      3          6           0       -2.279803   -1.207591   -0.005674
      4          6           0       -0.884391   -1.210053   -0.004821
      5          6           0       -0.188804    0.000299   -0.003400
      6          6           0       -0.884481    1.210333   -0.004568
      7          1           0       -2.814768    2.155251   -0.013429
      8          1           0       -2.814566   -2.155055   -0.013103
      9          1           0       -0.351355   -2.155449   -0.003906
     10          1           0       -0.351967    2.156013   -0.003493
     11         53           0        1.960876   -0.000039    0.002360
     12          7           0       -4.397501   -0.000381   -0.065995
     13          1           0       -4.852353   -0.838788    0.274486
     14          1           0       -4.852673    0.838220    0.273533
 ---------------------------------------------------------------------

 SCF Done:  E(RB3LYP) =  -298.429767068     A.U. after    1 cycles

 The electronic state is 1-A.
 Alpha  occ. eigenvalues --  -14.35477 -10.24396 -10.23414 -10.20556 -10.20555
 Alpha  occ. eigenvalues --  -10.19815 -10.19814  -0.93597  -0.85804  -0.76272
 Alpha  occ. eigenvalues --   -0.75565  -0.68191  -0.63188  -0.60140  -0.53711
 Alpha  occ. eigenvalues --   -0.52775  -0.47146  -0.44988  -0.44225  -0.43600
 Alpha  occ. eigenvalues --   -0.39928  -0.36330  -0.34718  -0.33754  -0.26981
 Alpha  occ. eigenvalues --   -0.26725  -0.26502  -0.21471
 Alpha virt. eigenvalues --   -0.03912  -0.02493  -0.01229  -0.00415   0.01509
 Alpha virt. eigenvalues --    0.01548   0.03716   0.04409   0.05229   0.05995
 Alpha virt. eigenvalues --    0.06695   0.07147   0.07549   0.08668   0.10213

 Mulliken charges:
               1
     1  C   -0.163351
     2  C    0.246279
     3  C   -0.163888
     4  C   -0.637528
     5  C    0.658728
     6  C   -0.636500
     7  H    0.170614
     8  H    0.170613
     9  H    0.193696
    10  H    0.193679
    11  I    0.053987
    12  N   -0.836297
    13  H    0.374982
    14  H    0.374985
 Sum of Mulliken charges =   0.00000

 Dipole moment (field-independent basis, Debye):
    X=             -3.3319    Y=              0.0002    Z=              1.0133  Tot=              3.4826
 Quadrupole moment (field-independent basis, Debye-Ang):
   XX=            -48.1745   YY=            -55.7821   ZZ=            -67.4243
   XY=             -0.0026   XZ=             -5.4798   YZ=             -0.0021

  Exact polarizability: 164.692  -0.001  96.901   0.204   0.000  61.916
 Approx polarizability: 230.285  -0.003 155.135   1.092   0.000  84.627

                      1                      2                      3
                      A                      A                      A
 Frequencies --     98.7453               194.9389               237.4432
 Red. masses --      5.5382                 5.4377                10.9521
 Frc consts  --      0.0318                 0.1217                 0.3638
 IR Inten    --      2.0825                 0.5296                 0.6847

                      4                      5                      6
                      A                      A                      A
 Frequencies --    286.6996               289.2936               406.6256
 Red. masses --      5.1157                 1.0408                 3.0327
 Frc consts  --      0.2477                 0.0513                 0.2954
 IR Inten    --      2.6469                19.9114                 0.0945

                      7                      8                      9
                      A                      A                      A
 Frequencies --    417.1059               498.6493               571.6933
 Red. masses --      2.9782                 2.3320                 2.5984
 Frc consts  --      0.3053                 0.3416                 0.5004
 IR Inten    --      0.2716                77.9329               238.8137

                     10                     11                     12
                      A                      A                      A
 Frequencies --    598.7403               644.0718               695.5029
 Red. masses --      2.1077                 6.9665                 3.1706
 Frc consts  --      0.4452                 1.7027                 0.9036
 IR Inten    --     88.4606                 0.0006                 2.0386

                     13                     14                     15
                      A                      A                      A
 Frequencies --    815.9105               823.3895               834.7292
 Red. masses --      1.2574                 2.0669                 3.3717
 Frc consts  --      0.4932                 0.8256                 1.3842
 IR Inten    --      0.0623                42.2648                32.0154

                     16                     17                     18
                      A                      A                      A
 Frequencies --    946.6028               959.8057              1007.3769
 Red. masses --      1.3018                 1.3444                 5.7481
 Frc consts  --      0.6873                 0.7297                 3.4368
 IR Inten    --      0.1150                 0.0008                33.8747

                     19                     20                     21
                      A                      A                      A
 Frequencies --   1081.2725              1095.0830              1167.8036
 Red. masses --      2.4345                 1.4788                 1.2426
 Frc consts  --      1.6770                 1.0448                 0.9985
 IR Inten    --     12.3936                 1.2613                 6.7432

                     22                     23                     24
                      A                      A                      A
 Frequencies --   1227.4558              1309.8988              1332.7880
 Red. masses --      1.1307                 3.3238                 2.5547
 Frc consts  --      1.0037                 3.3602                 2.6737
 IR Inten    --     21.0766               121.6808                 5.0687

                     25                     26                     27
                      A                      A                      A
 Frequencies --   1362.2737              1463.5736              1532.8955
 Red. masses --      1.8615                 2.5661                 2.3226
 Frc consts  --      2.0354                 3.2386                 3.2155
 IR Inten    --      0.3884                 2.5293               129.8268

                     28                     29                     30
                      A                      A                      A
 Frequencies --   1621.9558              1646.2525              1700.0920
 Red. masses --      6.2478                 4.7700                 1.1603
 Frc consts  --      9.6840                 7.6166                 1.9758
 IR Inten    --      1.6476                37.6309               103.1799

                     31                     32                     33
                      A                      A                      A
 Frequencies --   3176.5671              3176.9050              3215.3102
 Red. masses --      1.0892                 1.0890                 1.0929
 Frc consts  --      6.4758                 6.4757                 6.6567
 IR Inten    --     14.4162                20.3745                 9.0310

                     34                     35                     36
                      A                      A                      A
 Frequencies --   3216.2168              3555.0272              3652.4901
 Red. masses --      1.0935                 1.0482                 1.0989
 Frc consts  --      6.6647                 7.8051                 8.6374
 IR Inten    --      0.4680                20.6826                15.3735

 - Thermochemistry -
 -------------------
 Temperature   298.150 Kelvin.  Pressure   1.00000 Atm.
 Atom     1 has atomic number  6 and mass  12.00000

 Molecular mass:   218.95042 amu.
 Principal axes and moments of inertia in atomic units:
                           1         2         3
     Eigenvalues --   323.197513784.654474106.37395
           X            1.00000   0.00000  -0.00262
           Y            0.00000   1.00000  -0.00001
           Z            0.00262   0.00001   1.00000
 This molecule is an asymmetric top.
 Rotational symmetry number  1.
 Rotational temperatures (Kelvin)      0.26799     0.02289     0.02109
 Rotational constants (GHZ):           5.58402     0.47686     0.43950
 Zero-point vibrational energy     280292.1 (Joules/Mol)
                                   66.99143 (Kcal/Mol)
 Warning -- explicit consideration of  10 degrees of freedom as
           vibrations may cause significant error
 Vibrational temperatures:    142.07   280.47   341.63   412.50   416.23
          (Kelvin)            585.04   600.12   717.45   822.54   861.45
                              926.68  1000.67  1173.91  1184.67  1200.99
                             1361.95  1380.95  1449.39  1555.71  1575.58
                             1680.21  1766.04  1884.65  1917.58  1960.01
                             2105.76  2205.49  2333.63  2368.59  2446.05
                             4570.37  4570.86  4626.11  4627.42  5114.89
                             5255.12

 Zero-point correction=                           0.106758 (Hartree/Particle)
 Thermal correction to Energy=                    0.114153
 Thermal correction to Enthalpy=                  0.115097
 Thermal correction to Gibbs Free Energy=         0.073352
 Sum of electronic and zero-point Energies=           -298.323009
 Sum of electronic and thermal Energies=              -298.315614
 Sum of electronic and thermal Enthalpies=            -298.314670
 Sum of electronic and thermal Free Energies=         -298.356415

                     E (Thermal)             CV                S
                      KCal/Mol        Cal/Mol-Kelvin    Cal/Mol-Kelvin
 Total                   71.632             27.719             87.860
 Electronic               0.000              0.000              0.000
 Translational            0.889              2.981             42.054
 Rotational               0.889              2.981             29.997
 Vibrational             69.855             21.757             15.808
 Vibration     1          0.604              1.950              3.479
 Vibration     2          0.636              1.847              2.180
 Vibration     3          0.656              1.783              1.822
 Vibration     4          0.684              1.698              1.493
 Vibration     5          0.686              1.694              1.478
 Vibration     6          0.771              1.456              0.939
 Vibration     7          0.780              1.433              0.902
 Vibration     8          0.854              1.253              0.662
 Vibration     9          0.928              1.092              0.501
 Vibration    10          0.957              1.034              0.452

 Optimization completed.
    -- Stationary point found.
 Normal termination of Gaussian 16 at Sat Sep 16 07:24:27 2023.
