 Gaussian 16, Revision B.01,
 Gaussian 16:  EM64L-G16RevB.01 20-Dec-2017

 ----------------------------------------------------------------------
 # opt freq rb3lyp/gen nosymm empiricaldispersion=gd3 pseudo=read scf=m
 axcycle=1000 volume
 ----------------------------------------------------------------------

 -----
 reac1
 -----
 Symbolic Z-matrix:
 Charge =  0 Multiplicity = 1

 SCF Done:  E(RB3LYP) =  -580.132032774     A.U. after   14 cycles
 Optimization completed.
    -- Stationary point found.
 Normal termination of Gaussian 16 at Sat Sep 16 11:33:58 2023.

 ------------------------------------------------------------------
 #N Geom=AllCheck Guess=TCheck SCRF=Check GenChk RB3LYP/ChkBas Freq
 ------------------------------------------------------------------

 Structure from the checkpoint file:  "ARYLHALIDE-m-cf3-vol.chk"
 -----
 reac1
 -----
 Charge =  0 Multiplicity = 1

                          Input orientation:
 ---------------------------------------------------------------------
 Center     Atomic      Atomic             Coordinates (Angstroms)
 Number     Number       Type             X           Y           Z
 ---------------------------------------------------------------------
      1          6           0       -0.463351    0.021660   -0.095483
      2          6           0        0.196333    1.243546    0.053252
      3          6           0        0.244649   -1.179596   -0.138655
      4          6           0        1.590957    1.258088    0.159917
      5          1           0       -0.362623    2.172962    0.083965
      6          6           0        1.638955   -1.144440   -0.033207
      7          6           0        2.317913    0.068097    0.118832
      8         53           0       -2.601070   -0.014488   -0.265506
      9          1           0       -0.267675   -2.127094   -0.258346
     10          1           0        2.108731    2.206367    0.273266
     11          1           0        3.400155    0.078875    0.196648
     12          6           0        2.416605   -2.436033   -0.022200
     13          9           0        2.648528   -2.868570    1.247494
     14          9           0        3.630990   -2.303278   -0.612187
     15          9           0        1.765515   -3.437480   -0.661798
 ---------------------------------------------------------------------

 SCF Done:  E(RB3LYP) =  -580.132032774     A.U. after    1 cycles

 Alpha  occ. eigenvalues --  -24.75086 -24.74974 -24.74523 -10.45784 -10.26637
 Alpha  occ. eigenvalues --  -10.24148 -10.23231 -10.22967 -10.22723 -10.22604
 Alpha  occ. eigenvalues --   -1.32631  -1.24218  -1.23684  -0.90322  -0.81585
 Alpha  occ. eigenvalues --   -0.79414  -0.72497  -0.70914  -0.65221  -0.63727
 Alpha  occ. eigenvalues --   -0.60416  -0.60118  -0.57416  -0.53265  -0.49796
 Alpha  occ. eigenvalues --   -0.48460  -0.47981  -0.47381  -0.44770  -0.44456
 Alpha  occ. eigenvalues --   -0.43391  -0.43073  -0.42414  -0.40813  -0.38689
 Alpha  occ. eigenvalues --   -0.36358  -0.31828  -0.29391  -0.28337  -0.26155
 Alpha virt. eigenvalues --   -0.05847  -0.05773  -0.04682  -0.00166   0.01502
 Alpha virt. eigenvalues --    0.01955   0.03670   0.03918   0.04017   0.04983
 Alpha virt. eigenvalues --    0.05445   0.06285   0.06957   0.07493   0.08948

 Mulliken charges:
               1
     1  C    0.686614
     2  C   -0.325671
     3  C   -0.491880
     4  C   -0.280531
     5  H    0.203687
     6  C   -0.631299
     7  C   -0.001660
     8  I    0.098765
     9  H    0.223798
    10  H    0.195550
    11  H    0.211238
    12  C    0.995585
    13  F   -0.265810
    14  F   -0.302267
    15  F   -0.316119
 Sum of Mulliken charges =   0.00000

 Dipole moment (field-independent basis, Debye):
    X=             -0.0733    Y=              2.5952    Z=              0.0946  Tot=              2.5980
 Quadrupole moment (field-independent basis, Debye-Ang):
   XX=            -76.9547   YY=            -78.4211   ZZ=            -80.2480
   XY=              7.5838   XZ=              0.5838   YZ=              0.8654

  Exact polarizability: 152.869  -6.372 108.994   6.380   2.554  67.674
 Approx polarizability: 221.103  -0.881 166.182   9.736   5.693  95.215

                      1                      2                      3
                      A                      A                      A
 Frequencies --      8.6392               111.0431               115.6874
 Red. masses --     13.5973                15.7782                 6.5704
 Frc consts  --      0.0006                 0.1146                 0.0518
 IR Inten    --      0.2193                 0.4777                 0.0288

                      4                      5                      6
                      A                      A                      A
 Frequencies --    160.4900               229.3059               266.4763
 Red. masses --      5.1313                15.2418                 6.3955
 Frc consts  --      0.0779                 0.4722                 0.2676
 IR Inten    --      0.4203                 0.9978                 0.4652

                      7                      8                      9
                      A                      A                      A
 Frequencies --    320.6505               349.6535               409.4635
 Red. masses --      6.2236                 9.1195                 8.6349
 Frc consts  --      0.3770                 0.6569                 0.8530
 IR Inten    --      1.1235                 3.5421                 2.3762

                     10                     11                     12
                      A                      A                      A
 Frequencies --    438.4563               495.1206               568.3431
 Red. masses --      3.3672                 9.6960                12.3963
 Frc consts  --      0.3814                 1.4004                 2.3592
 IR Inten    --      2.8356                 2.1019                 0.1436

                     13                     14                     15
                      A                      A                      A
 Frequencies --    607.5241               650.5520               677.2253
 Red. masses --      7.0471                 7.7278                10.4415
 Frc consts  --      1.5325                 1.9269                 2.8215
 IR Inten    --      0.6516                 4.0773                50.3654

                     16                     17                     18
                      A                      A                      A
 Frequencies --    705.1433               784.6014               804.2256
 Red. masses --      2.2701                10.5755                 1.4717
 Frc consts  --      0.6650                 3.8357                 0.5608
 IR Inten    --     21.1346                23.7302                40.5349

                     19                     20                     21
                      A                      A                      A
 Frequencies --    916.2360               937.1202               998.8087
 Red. masses --      1.3848                 1.3903                 1.3311
 Frc consts  --      0.6850                 0.7194                 0.7824
 IR Inten    --     11.1183                 4.4947                 0.2966

                     22                     23                     24
                      A                      A                      A
 Frequencies --   1009.3992              1068.0000              1105.5711
 Red. masses --      6.4472                 8.0175                 2.1428
 Frc consts  --      3.8703                 5.3880                 1.5431
 IR Inten    --     10.6971                58.7223                47.7020

                     25                     26                     27
                      A                      A                      A
 Frequencies --   1121.9242              1124.9345              1176.2194
 Red. masses --      2.6150                 6.8120                 3.6436
 Frc consts  --      1.9393                 5.0790                 2.9700
 IR Inten    --     98.2837               229.8501               164.6933

                     28                     29                     30
                      A                      A                      A
 Frequencies --   1219.1035              1314.5644              1332.0462
 Red. masses --      1.1452                 3.1485                 3.4429
 Frc consts  --      1.0028                 3.2057                 3.5993
 IR Inten    --      1.0523               320.8145                94.4870

                     31                     32                     33
                      A                      A                      A
 Frequencies --   1359.6990              1460.7364              1519.5523
 Red. masses --      1.8454                 2.7651                 2.2771
 Frc consts  --      2.0101                 3.4762                 3.0979
 IR Inten    --      0.9771                38.6456                 6.9272

                     34                     35                     36
                      A                      A                      A
 Frequencies --   1621.2975              1647.0053              3199.9761
 Red. masses --      5.8921                 5.4406                 1.0882
 Frc consts  --      9.1253                 8.6954                 6.5652
 IR Inten    --     25.0748                 2.1298                 4.5625

                     37                     38                     39
                      A                      A                      A
 Frequencies --   3221.6357              3226.9679              3236.0941
 Red. masses --      1.0919                 1.0958                 1.0920
 Frc consts  --      6.6773                 6.7234                 6.7378
 IR Inten    --      0.9464                 4.8275                 0.8015

 - Thermochemistry -
 -------------------
 Temperature   298.150 Kelvin.  Pressure   1.00000 Atm.
 Atom     1 has atomic number  6 and mass  12.00000

 Molecular mass:   271.92691 amu.
 Principal axes and moments of inertia in atomic units:
                           1         2         3
     Eigenvalues --  1150.874066343.107487172.43871
           X            0.91647   0.39190  -0.08061
           Y           -0.39717   0.91546  -0.06476
           Z            0.04841   0.09137   0.99464
 This molecule is an asymmetric top.
 Rotational symmetry number  1.
 Warning -- assumption of classical behavior for rotation
           may cause significant error
 Rotational temperatures (Kelvin)      0.07526     0.01365     0.01208
 Rotational constants (GHZ):           1.56815     0.28452     0.25162
 Zero-point vibrational energy     248341.7 (Joules/Mol)
                                   59.35509 (Kcal/Mol)
 Warning -- explicit consideration of  13 degrees of freedom as
           vibrations may cause significant error
 Vibrational temperatures:     12.43   159.77   166.45   230.91   329.92
          (Kelvin)            383.40   461.34   503.07   589.13   630.84
                              712.37   817.72   874.09   936.00   974.38
                             1014.54  1128.87  1157.10  1318.26  1348.31
                             1437.06  1452.30  1536.61  1590.67  1614.20
                             1618.53  1692.32  1754.02  1891.36  1916.52
                             1956.30  2101.67  2186.30  2332.69  2369.67
                             4604.05  4635.22  4642.89  4656.02

 Zero-point correction=                           0.094588 (Hartree/Particle)
 Thermal correction to Energy=                    0.104137
 Thermal correction to Enthalpy=                  0.105081
 Thermal correction to Gibbs Free Energy=         0.055691
 Sum of electronic and zero-point Energies=           -580.037444
 Sum of electronic and thermal Energies=              -580.027896
 Sum of electronic and thermal Enthalpies=            -580.026952
 Sum of electronic and thermal Free Energies=         -580.076341

                     E (Thermal)             CV                S
                      KCal/Mol        Cal/Mol-Kelvin    Cal/Mol-Kelvin
 Total                   65.347             34.447            103.949
 Electronic               0.000              0.000              0.000
 Translational            0.889              2.981             42.700
 Rotational               0.889              2.981             32.326
 Vibrational             63.569             28.486             28.922
 Vibration     1          0.593              1.987              8.302
 Vibration     2          0.607              1.940              3.251
 Vibration     3          0.608              1.936              3.171
 Vibration     4          0.622              1.891              2.544
 Vibration     5          0.652              1.796              1.884
 Vibration     6          0.672              1.735              1.619
 Vibration     7          0.706              1.634              1.307
 Vibration     8          0.727              1.576              1.168
 Vibration     9          0.774              1.450              0.929
 Vibration    10          0.799              1.386              0.831
 Vibration    11          0.851              1.261              0.670
 Vibration    12          0.924              1.100              0.507
 Vibration    13          0.966              1.016              0.437

 Optimization completed.
    -- Stationary point found.
 Normal termination of Gaussian 16 at Sat Sep 16 11:35:11 2023.
