 Gaussian 16, Revision B.01,
 Gaussian 16:  EM64L-G16RevB.01 20-Dec-2017

 ----------------------------------------------------------------------
 # opt freq b3lyp/gen empiricaldispersion=gd3 pseudo=read scf=maxcycle=
 1000 volume
 ----------------------------------------------------------------------

 -------------------
 Title Card Required
 -------------------
 Symbolic Z-matrix:
 Charge =  0 Multiplicity = 1

 SCF Done:  E(RB3LYP) =  -128.213853251     A.U. after   11 cycles
 SCF Done:  E(RB3LYP) =  -128.213853416     A.U. after    6 cycles
 Optimization completed.
    -- Stationary point found.
 Normal termination of Gaussian 16 at Wed Sep 13 09:34:38 2023.

 ------------------------------------------------------------------
 #N Geom=AllCheck Guess=TCheck SCRF=Check GenChk RB3LYP/ChkBas Freq
 ------------------------------------------------------------------

 Structure from the checkpoint file:  "KF-vol.chk"
 -------------------
 Title Card Required
 -------------------
 Charge =  0 Multiplicity = 1

                         Standard orientation:
 ---------------------------------------------------------------------
 Center     Atomic      Atomic             Coordinates (Angstroms)
 Number     Number       Type             X           Y           Z
 ---------------------------------------------------------------------
      1          9           0        0.000000    0.000000   -1.569278
      2         19           0        0.000000    0.000000    0.743342
 ---------------------------------------------------------------------

 SCF Done:  E(RB3LYP) =  -128.213853416     A.U. after    1 cycles

 The electronic state is 1-SG.
 Alpha  occ. eigenvalues --  -24.47110  -1.40101  -0.92367  -0.74465  -0.74465
 Alpha  occ. eigenvalues --   -0.73045  -0.20684  -0.20422  -0.20422
 Alpha virt. eigenvalues --   -0.06074   0.00350   0.00350   0.02549   0.03881
 Alpha virt. eigenvalues --    0.24489   0.24489   0.29569   0.31302   0.31302
 Alpha virt. eigenvalues --    0.32116   0.37727   0.86044   1.34109   1.41834

 Mulliken charges:
               1
     1  F   -0.932635
     2  K    0.932635
 Sum of Mulliken charges =   0.00000

 Dipole moment (field-independent basis, Debye):
    X=              0.0000    Y=              0.0000    Z=             10.2968  Tot=             10.2968
 Quadrupole moment (field-independent basis, Debye-Ang):
   XX=            -15.7265   YY=            -15.7265   ZZ=            -24.1035
   XY=              0.0000   XZ=              0.0000   YZ=              0.0000

  Exact polarizability:   9.603   0.000   9.603   0.000   0.000  18.162
 Approx polarizability:   9.185   0.000   9.185   0.000   0.000  17.548

                      1
                     SG
 Frequencies --    369.3007
 Red. masses --     22.8333
 Frc consts  --      1.8348
 IR Inten    --     65.7694

 - Thermochemistry -
 -------------------
 Temperature   298.150 Kelvin.  Pressure   1.00000 Atm.
 Atom     1 has atomic number  9 and mass  18.99840

 Molecular mass:    57.96211 amu.
 Principal axes and moments of inertia in atomic units:
                           1         2         3
     Eigenvalues --     0.00000 243.91544 243.91544
           X            0.00000   0.00000   1.00000
           Y            0.00000   1.00000   0.00000
           Z            1.00000   0.00000   0.00000
 This molecule is a prolate symmetric top.
 Rotational symmetry number  1.
 Rotational temperature (Kelvin)      0.35510
 Rotational constant (GHZ):           7.399044
 Zero-point vibrational energy       2208.9 (Joules/Mol)
                                    0.52794 (Kcal/Mol)
 Warning -- explicit consideration of   1 degrees of freedom as
           vibrations may cause significant error
 Vibrational temperatures:    531.34
          (Kelvin)

 Zero-point correction=                           0.000841 (Hartree/Particle)
 Thermal correction to Energy=                    0.003542
 Thermal correction to Enthalpy=                  0.004486
 Thermal correction to Gibbs Free Energy=        -0.021428
 Sum of electronic and zero-point Energies=           -128.213012
 Sum of electronic and thermal Energies=              -128.210311
 Sum of electronic and thermal Enthalpies=            -128.209367
 Sum of electronic and thermal Free Energies=         -128.235282

                     E (Thermal)             CV                S
                      KCal/Mol        Cal/Mol-Kelvin    Cal/Mol-Kelvin
 Total                    2.223              6.503             54.542
 Electronic               0.000              0.000              0.000
 Translational            0.889              2.981             38.092
 Rotational               0.592              1.987             15.367
 Vibrational              0.742              1.535              1.083
 Vibration     1          0.742              1.535              1.083

 Optimization completed.
    -- Stationary point found.
 Normal termination of Gaussian 16 at Wed Sep 13 09:34:41 2023.
