 Gaussian 16, Revision B.01,
 Gaussian 16:  EM64L-G16RevB.01 20-Dec-2017

 ----------------------------------------------------------------------
 # opt freq b3lyp/gen empiricaldispersion=gd3 pseudo=read scf=maxcycle=
 1000 volume
 ----------------------------------------------------------------------

 -------------------
 Title Card Required
 -------------------
 Symbolic Z-matrix:
 Charge =  0 Multiplicity = 1

 SCF Done:  E(RB3LYP) =  -320.567091892     A.U. after   14 cycles
 SCF Done:  E(RB3LYP) =  -320.567092643     A.U. after    7 cycles
 SCF Done:  E(RB3LYP) =  -320.567093182     A.U. after    7 cycles
 Optimization completed.
    -- Stationary point found.

 1\1\GINC-IP-172-31-38-84\FOpt\RB3LYP\Gen\C1K2O3\UBUNTU\13-Sep-2023\0\\
 # opt freq b3lyp/gen empiricaldispersion=gd3 pseudo=read scf=maxcycle=
 1000 volume\\Title Card Required\\0,1\C,0.,0.,-0.8268749782\O,0.,1.130
 2501406,-1.4373487958\O,0.,0.,0.527601683\O,0.,-1.1302501406,-1.437348
 7958\K,0.,2.554747957,0.6264919434\K,0.,-2.554747957,0.6264919434\\Ver
 sion=EM64L-G16RevB.01\State=1-A1\HF=-320.5670932\RMSD=6.288e-09\RMSF=2
 .854e-05\Dipole=0.,0.,4.2590238\Quadrupole=-8.1943913,25.8793892,-17.6
 849979,0.,0.,0.\PG=C02V [C2(C1O1),SGV(K2O2)]\\@

 Normal termination of Gaussian 16 at Wed Sep 13 09:32:31 2023.

 ------------------------------------------------------------------
 #N Geom=AllCheck Guess=TCheck SCRF=Check GenChk RB3LYP/ChkBas Freq
 ------------------------------------------------------------------

 Structure from the checkpoint file:  "K2CO3-SDD-vol.chk"
 -------------------
 Title Card Required
 -------------------
 Charge =  0 Multiplicity = 1

                         Standard orientation:
 ---------------------------------------------------------------------
 Center     Atomic      Atomic             Coordinates (Angstroms)
 Number     Number       Type             X           Y           Z
 ---------------------------------------------------------------------
      1          6           0        0.000000    0.000000   -0.827885
      2          8           0        0.000000    1.130250   -1.438359
      3          8           0        0.000000    0.000000    0.526592
      4          8           0        0.000000   -1.130250   -1.438359
      5         19           0        0.000000    2.554748    0.625482
      6         19           0        0.000000   -2.554748    0.625482
 ---------------------------------------------------------------------

 SCF Done:  E(RB3LYP) =  -320.567093182     A.U. after    1 cycles

 The electronic state is 1-A1.
 Alpha  occ. eigenvalues --  -19.01373 -19.00106 -19.00100 -10.21568  -1.36608
 Alpha  occ. eigenvalues --   -1.36604  -0.95548  -0.84446  -0.83047  -0.71069
 Alpha  occ. eigenvalues --   -0.71062  -0.70719  -0.70627  -0.70034  -0.69943
 Alpha  occ. eigenvalues --   -0.40248  -0.34003  -0.32962  -0.32378  -0.20206
 Alpha  occ. eigenvalues --   -0.17883  -0.17655  -0.16739  -0.13304
 Alpha virt. eigenvalues --   -0.04191  -0.03614   0.00959   0.01115   0.02091
 Alpha virt. eigenvalues --    0.02381   0.03160   0.04428   0.04936   0.05694
 Alpha virt. eigenvalues --    0.13102   0.13222   0.13809   0.16447   0.16923

 Mulliken charges:
               1
     1  C    0.704553
     2  O   -0.779187
     3  O   -1.012651
     4  O   -0.779187
     5  K    0.933236
     6  K    0.933236
 Sum of Mulliken charges =   0.00000

 Dipole moment (field-independent basis, Debye):
    X=              0.0000    Y=              0.0000    Z=             10.8254  Tot=             10.8254
 Quadrupole moment (field-independent basis, Debye-Ang):
   XX=            -43.0614   YY=              2.7690   ZZ=            -55.8266
   XY=              0.0000   XZ=              0.0000   YZ=              0.0000

  Exact polarizability:  32.149   0.000  63.851   0.000   0.000  51.180
 Approx polarizability:  38.774   0.000  71.306   0.000   0.000  61.494

                      1                      2                      3
                     A2                     B1                     A1
 Frequencies --     72.1912                86.4484               120.2045
 Red. masses --     16.7283                17.4276                28.4073
 Frc consts  --      0.0514                 0.0767                 0.2418
 IR Inten    --      0.0000                37.6468                24.6097

                      4                      5                      6
                     A1                     B2                     B2
 Frequencies --    240.5484               275.1860               281.5800
 Red. masses --     25.1140                21.7655                17.0119
 Frc consts  --      0.8562                 0.9711                 0.7947
 IR Inten    --     50.8217                95.2595                 3.4868

                      7                      8                      9
                     A1                     B2                     B1
 Frequencies --    674.3748               684.9070               844.6628
 Red. masses --     15.7788                15.7419                12.6546
 Frc consts  --      4.2279                 4.3508                 5.3194
 IR Inten    --      0.0663                 4.1024                16.1322

                     10                     11                     12
                     A1                     A1                     B2
 Frequencies --    997.1866              1308.8362              1534.5869
 Red. masses --     15.5228                13.1755                12.8550
 Frc consts  --      9.0944                13.2980                17.8363
 IR Inten    --     95.7298               663.1961               862.9255

 - Thermochemistry -
 -------------------
 Temperature   298.150 Kelvin.  Pressure   1.00000 Atm.
 Atom     1 has atomic number  6 and mass  12.00000

 Molecular mass:   137.91216 amu.
 Principal axes and moments of inertia in atomic units:
                           1         2         3
     Eigenvalues --   390.387721962.220332352.60806
           X            0.00000   0.00000   1.00000
           Y            1.00000   0.00000   0.00000
           Z            0.00000   1.00000   0.00000
 This molecule is an asymmetric top.
 Rotational symmetry number  2.
 Rotational temperatures (Kelvin)      0.22187     0.04414     0.03682
 Rotational constants (GHZ):           4.62295     0.91974     0.76712
 Zero-point vibrational energy      42591.3 (Joules/Mol)
                                   10.17957 (Kcal/Mol)
 Warning -- explicit consideration of   6 degrees of freedom as
           vibrations may cause significant error
 Vibrational temperatures:    103.87   124.38   172.95   346.10   395.93
          (Kelvin)            405.13   970.27   985.43  1215.28  1434.73
                             1883.12  2207.93

 Zero-point correction=                           0.016222 (Hartree/Particle)
 Thermal correction to Energy=                    0.023058
 Thermal correction to Enthalpy=                  0.024002
 Thermal correction to Gibbs Free Energy=        -0.016412
 Sum of electronic and zero-point Energies=           -320.550871
 Sum of electronic and thermal Energies=              -320.544035
 Sum of electronic and thermal Enthalpies=            -320.543091
 Sum of electronic and thermal Free Energies=         -320.583505

                     E (Thermal)             CV                S
                      KCal/Mol        Cal/Mol-Kelvin    Cal/Mol-Kelvin
 Total                   14.469             19.933             85.060
 Electronic               0.000              0.000              0.000
 Translational            0.889              2.981             40.676
 Rotational               0.889              2.981             27.601
 Vibrational             12.692             13.971             16.782
 Vibration     1          0.598              1.967              4.093
 Vibration     2          0.601              1.959              3.739
 Vibration     3          0.609              1.932              3.097
 Vibration     4          0.658              1.778              1.799
 Vibration     5          0.677              1.719              1.563
 Vibration     6          0.681              1.708              1.524

 Optimization completed.
    -- Stationary point found.

 1\1\GINC-IP-172-31-38-84\Freq\RB3LYP\Gen\C1K2O3\UBUNTU\13-Sep-2023\0\\
 #N Geom=AllCheck Guess=TCheck SCRF=Check GenChk RB3LYP/ChkBas Freq\\Ti
 tle Card Required\\0,1\C,0.,0.,-0.8268749782\O,0.,1.1302501406,-1.4373
 487958\O,0.,0.,0.527601683\O,0.,-1.1302501406,-1.4373487958\K,0.,2.554
 747957,0.6264919434\K,0.,-2.554747957,0.6264919434\\Version=EM64L-G16R
 evB.01\State=1-A1\HF=-320.5670932\RMSD=3.375e-09\RMSF=2.854e-05\ZeroPo
 int=0.0162222\Thermal=0.0230582\Dipole=0.,0.,4.2590236\DipoleDeriv=0.0
 483965,0.,0.,0.,2.4445581,0.,0.,0.,2.2778408,-0.5473519,0.,0.,0.,-1.74

 Normal termination of Gaussian 16 at Wed Sep 13 09:32:39 2023.
