 Gaussian 16, Revision B.01,
 Gaussian 16:  EM64L-G16RevB.01 20-Dec-2017

 ----------------------------------------------------------------------
 # opt freq b3lyp/6-31+g(d) empiricaldispersion=gd3 scf=maxcycle=1000 v
 olume
 ----------------------------------------------------------------------

 -------------------
 Title Card Required
 -------------------
 Symbolic Z-matrix:
 Charge =  0 Multiplicity = 1

 SCF Done:  E(RB3LYP) =  -345.355687315     A.U. after   11 cycles
 Optimization completed.
    -- Stationary point found.
 Normal termination of Gaussian 16 at Wed Sep 13 09:24:54 2023.

 ---------------------------------------------------------------------
 #N Geom=AllCheck Guess=TCheck SCRF=Check GenChk RB3LYP/6-31+G(d) Freq
 ---------------------------------------------------------------------

 Structure from the checkpoint file:  "dabco-volume.chk"
 -------------------
 Title Card Required
 -------------------
 Charge =  0 Multiplicity = 1

                         Standard orientation:
 ---------------------------------------------------------------------
 Center     Atomic      Atomic             Coordinates (Angstroms)
 Number     Number       Type             X           Y           Z
 ---------------------------------------------------------------------
      1          6           0        0.783205   -0.098870    1.382013
      2          6           0       -0.783434   -0.098575    1.381908
      3          1           0        1.186262   -1.017255    1.826384
      4          1           0        1.186676    0.746443    1.952932
      5          1           0       -1.186915   -1.016560    1.826724
      6          1           0       -1.186642    0.747210    1.952310
      7          6           0        0.783333   -1.147333   -0.776555
      8          1           0        1.186412   -1.072892   -1.794064
      9          1           0        1.187003   -2.064333   -0.329869
     10          6           0       -0.783056   -1.147646   -0.776372
     11          1           0       -1.186417   -1.073905   -1.793821
     12          1           0       -1.186239   -2.064575   -0.329106
     13          6           0       -0.783401    1.246103   -0.605726
     14          1           0       -1.186397    1.317059   -1.623484
     15          1           0       -1.187007    2.090209   -0.033106
     16          6           0        0.783349    1.246366   -0.605256
     17          1           0        1.186952    1.317975   -1.622728
     18          1           0        1.186318    2.090321   -0.031964
     19          7           0       -1.290272   -0.000079   -0.000132
     20          7           0        1.290273    0.000083    0.000091
 ---------------------------------------------------------------------

 SCF Done:  E(RB3LYP) =  -345.355687315     A.U. after    1 cycles

 The electronic state is 1-A.
 Alpha  occ. eigenvalues --  -14.33109 -14.33108 -10.20917 -10.20916 -10.20916
 Alpha  occ. eigenvalues --  -10.20901 -10.20900 -10.20899  -0.96271  -0.88281
 Alpha  occ. eigenvalues --   -0.75795  -0.75792  -0.64008  -0.64007  -0.63333
 Alpha  occ. eigenvalues --   -0.52124  -0.50362  -0.50362  -0.48578  -0.41621
 Alpha  occ. eigenvalues --   -0.41620  -0.41330  -0.39749  -0.39749  -0.38254
 Alpha  occ. eigenvalues --   -0.38250  -0.33204  -0.32556  -0.32555  -0.26346
 Alpha  occ. eigenvalues --   -0.19080
 Alpha virt. eigenvalues --    0.00587   0.01992   0.01992   0.02721   0.03781
 Alpha virt. eigenvalues --    0.04277   0.04278   0.04604   0.04604   0.06916
 Alpha virt. eigenvalues --    0.09069   0.09300   0.09300   0.10716   0.10716

 Mulliken charges:
               1
     1  C   -0.347144
     2  C   -0.347144
     3  H    0.198354
     4  H    0.198368
     5  H    0.198363
     6  H    0.198359
     7  C   -0.347122
     8  H    0.198355
     9  H    0.198375
    10  C   -0.347117
    11  H    0.198364
    12  H    0.198367
    13  C   -0.347083
    14  H    0.198358
    15  H    0.198359
    16  C   -0.347080
    17  H    0.198367
    18  H    0.198351
    19  N   -0.148825
    20  N   -0.148826
 Sum of Mulliken charges =   0.00000

 Dipole moment (field-independent basis, Debye):
    X=              0.0000    Y=              0.0000    Z=              0.0000  Tot=              0.0000
 Quadrupole moment (field-independent basis, Debye-Ang):
   XX=            -59.5898   YY=            -47.5480   ZZ=            -47.5475
   XY=             -0.0007   XZ=             -0.0011   YZ=              0.0005

  Exact polarizability:  76.689   0.000  81.958   0.000   0.000  81.959
 Approx polarizability: 105.435   0.000 113.727  -0.001   0.000 113.728

                      1                      2                      3
                      A                      A                      A
 Frequencies --     79.6936               351.6412               352.5302
 Red. masses --      1.6941                 1.7495                 1.7526
 Frc consts  --      0.0063                 0.1275                 0.1283
 IR Inten    --      0.0000                 0.0000                 0.0000

                      4                      5                      6
                      A                      A                      A
 Frequencies --    440.5983               440.9558               591.8862
 Red. masses --      2.3950                 2.3977                 3.5155
 Frc consts  --      0.2739                 0.2747                 0.7256
 IR Inten    --      0.0001                 0.0001                 0.0000

                      7                      8                      9
                      A                      A                      A
 Frequencies --    591.9745               601.8499               761.6835
 Red. masses --      3.5100                11.8222                 4.2002
 Frc consts  --      0.7247                 2.5230                 1.4357
 IR Inten    --      0.0000                 0.0000                72.3047

                     10                     11                     12
                      A                      A                      A
 Frequencies --    807.3083               821.1139               842.7665
 Red. masses --      5.2556                 1.1586                 1.2544
 Frc consts  --      2.0182                 0.4603                 0.5249
 IR Inten    --      0.0000                 0.0011                 5.1656

                     13                     14                     15
                      A                      A                      A
 Frequencies --    843.5152               892.3940               892.9712
 Red. masses --      1.2548                 3.6181                 3.6212
 Frc consts  --      0.5260                 1.6976                 1.7013
 IR Inten    --      5.2290                 4.5212                 4.5947

                     16                     17                     18
                      A                      A                      A
 Frequencies --    963.5229               993.3973              1037.5050
 Red. masses --      3.2762                 5.3236                 1.5258
 Frc consts  --      1.7920                 3.0953                 0.9677
 IR Inten    --      0.0003                17.9769                 0.0000

                     19                     20                     21
                      A                      A                      A
 Frequencies --   1038.7750              1039.1189              1077.5875
 Red. masses --      2.9916                 2.9835                 3.2069
 Frc consts  --      1.9019                 1.8980                 2.1940
 IR Inten    --      0.0000                 0.0000                43.9082

                     22                     23                     24
                      A                      A                      A
 Frequencies --   1077.6885              1205.9659              1210.1718
 Red. masses --      3.2050                 1.0415                 2.0352
 Frc consts  --      2.1931                 0.8924                 1.7561
 IR Inten    --     43.9123                 0.0001                 0.0000

                     25                     26                     27
                      A                      A                      A
 Frequencies --   1210.3020              1267.9078              1335.4636
 Red. masses --      2.0330                 1.0975                 1.2213
 Frc consts  --      1.7546                 1.0395                 1.2833
 IR Inten    --      0.0000                 0.0000                 0.0000

                     28                     29                     30
                      A                      A                      A
 Frequencies --   1335.6064              1341.3967              1341.7394
 Red. masses --      1.2208                 1.2163                 1.2159
 Frc consts  --      1.2830                 1.2895                 1.2897
 IR Inten    --      0.0000                 0.0055                 0.0044

                     31                     32                     33
                      A                      A                      A
 Frequencies --   1352.7648              1352.9850              1361.9075
 Red. masses --      1.3789                 1.3772                 1.4299
 Frc consts  --      1.4868                 1.4854                 1.5626
 IR Inten    --      0.0001                 0.0001                10.1089

                     34                     35                     36
                      A                      A                      A
 Frequencies --   1362.1041              1373.0371              1393.3710
 Red. masses --      1.4293                 1.2898                 1.3314
 Frc consts  --      1.5624                 1.4326                 1.5230
 IR Inten    --     10.0908                 0.0019                 8.4979

                     37                     38                     39
                      A                      A                      A
 Frequencies --   1503.5995              1504.0366              1515.0492
 Red. masses --      1.0803                 1.0802                 1.0807
 Frc consts  --      1.4390                 1.4398                 1.4615
 IR Inten    --      0.0019                 0.0006                 9.9835

                     40                     41                     42
                      A                      A                      A
 Frequencies --   1515.2988              1520.6700              1529.4620
 Red. masses --      1.0808                 1.0917                 1.0902
 Frc consts  --      1.4622                 1.4875                 1.5025
 IR Inten    --      9.9889                 6.9006                 0.0048

                     43                     44                     45
                      A                      A                      A
 Frequencies --   3033.0036              3033.0719              3035.2983
 Red. masses --      1.0581                 1.0581                 1.0600
 Frc consts  --      5.7351                 5.7354                 5.7538
 IR Inten    --      0.0600                 0.0548               117.9035

                     46                     47                     48
                      A                      A                      A
 Frequencies --   3041.7548              3041.8256              3049.6953
 Red. masses --      1.0584                 1.0584                 1.0615
 Frc consts  --      5.7699                 5.7701                 5.8169
 IR Inten    --    137.6830               137.9751                 0.0093

                     49                     50                     51
                      A                      A                      A
 Frequencies --   3067.6616              3070.7849              3070.9471
 Red. masses --      1.1086                 1.1073                 1.1073
 Frc consts  --      6.1466                 6.1519                 6.1526
 IR Inten    --      0.0006                 0.0005                 0.0000

                     52                     53                     54
                      A                      A                      A
 Frequencies --   3090.0089              3096.9273              3097.0882
 Red. masses --      1.1087                 1.1086                 1.1086
 Frc consts  --      6.2370                 6.2645                 6.2651
 IR Inten    --      0.0201               110.2465               110.4650

 - Thermochemistry -
 -------------------
 Temperature   298.150 Kelvin.  Pressure   1.00000 Atm.
 Atom     1 has atomic number  6 and mass  12.00000

 Molecular mass:   112.10005 amu.
 Principal axes and moments of inertia in atomic units:
                           1         2         3
     Eigenvalues --   682.31987 726.21493 726.23433
           X            1.00000  -0.00005  -0.00007
           Y            0.00005   0.99774   0.06717
           Z            0.00007  -0.06717   0.99774
 This molecule is an asymmetric top.
 Rotational symmetry number  1.
 Warning -- assumption of classical behavior for rotation
           may cause significant error
 Rotational temperatures (Kelvin)      0.12694     0.11927     0.11926
 Rotational constants (GHZ):           2.64501     2.48513     2.48507
 Zero-point vibrational energy     483299.6 (Joules/Mol)
                                  115.51138 (Kcal/Mol)
 Warning -- explicit consideration of   8 degrees of freedom as
           vibrations may cause significant error
 Vibrational temperatures:    114.66   505.93   507.21   633.92   634.44
          (Kelvin)            851.59   851.72   865.93  1095.89  1161.54
                             1181.40  1212.55  1213.63  1283.96  1284.79
                             1386.29  1429.28  1492.74  1494.57  1495.06
                             1550.41  1550.55  1735.12  1741.17  1741.35
                             1824.24  1921.43  1921.64  1929.97  1930.46
                             1946.33  1946.64  1959.48  1959.76  1975.49
                             2004.75  2163.34  2163.97  2179.82  2180.18
                             2187.90  2200.55  4363.82  4363.91  4367.12
                             4376.41  4376.51  4387.83  4413.68  4418.17
                             4418.41  4445.83  4455.79  4456.02

 Zero-point correction=                           0.184079 (Hartree/Particle)
 Thermal correction to Energy=                    0.190328
 Thermal correction to Enthalpy=                  0.191272
 Thermal correction to Gibbs Free Energy=         0.153756
 Sum of electronic and zero-point Energies=           -345.171608
 Sum of electronic and thermal Energies=              -345.165360
 Sum of electronic and thermal Enthalpies=            -345.164416
 Sum of electronic and thermal Free Energies=         -345.201931

                     E (Thermal)             CV                S
                      KCal/Mol        Cal/Mol-Kelvin    Cal/Mol-Kelvin
 Total                  119.432             25.950             78.957
 Electronic               0.000              0.000              0.000
 Translational            0.889              2.981             40.058
 Rotational               0.889              2.981             27.378
 Vibrational            117.655             19.988             11.521
 Vibration     1          0.600              1.963              3.898
 Vibration     2          0.728              1.572              1.159
 Vibration     3          0.729              1.570              1.155
 Vibration     4          0.800              1.382              0.825
 Vibration     5          0.801              1.381              0.824
 Vibration     6          0.949              1.049              0.464
 Vibration     7          0.949              1.049              0.464
 Vibration     8          0.960              1.028              0.446

 Optimization completed.
    -- Stationary point found.
 Normal termination of Gaussian 16 at Wed Sep 13 09:26:12 2023.
