 Gaussian 16, Revision B.01,
 Gaussian 16:  EM64L-G16RevB.01 20-Dec-2017

 ----------------------------------------------------------------
 # opt freq b3lyp/6-31+g(d) nosymm empiricaldispersion=gd3 volume
 ----------------------------------------------------------------

 -----------
 molecule_28
 -----------
 Symbolic Z-matrix:
 Charge =  0 Multiplicity = 1

 SCF Done:  E(RB3LYP) =  -346.807851261     A.U. after   14 cycles
 SCF Done:  E(RB3LYP) =  -346.808304658     A.U. after   12 cycles
 SCF Done:  E(RB3LYP) =  -346.808343593     A.U. after   10 cycles
 SCF Done:  E(RB3LYP) =  -346.808346358     A.U. after    9 cycles
 Optimization completed.
    -- Stationary point found.
 Normal termination of Gaussian 16 at Fri Sep 15 03:56:46 2023.

 ---------------------------------------------------------------------
 #N Geom=AllCheck Guess=TCheck SCRF=Check GenChk RB3LYP/6-31+G(d) Freq
 ---------------------------------------------------------------------

 Structure from the checkpoint file:  "MOLECULE_28.chk"
 -----------
 molecule_28
 -----------
 Charge =  0 Multiplicity = 1

                          Input orientation:
 ---------------------------------------------------------------------
 Center     Atomic      Atomic             Coordinates (Angstroms)
 Number     Number       Type             X           Y           Z
 ---------------------------------------------------------------------
      1          6           0       -0.307671   -0.737253    0.005384
      2          6           0        1.083692   -0.767993   -0.082506
      3          6           0        1.805434    0.428447   -0.115748
      4          6           0        1.153388    1.674321   -0.061962
      5          6           0       -0.245401    1.674775    0.026077
      6          6           0       -0.980179    0.487617    0.060214
      7          1           0       -0.864334   -1.670484    0.030914
      8          1           0        1.629520   -1.705828   -0.126405
      9          1           0       -0.764326    2.630352    0.068527
     10          1           0       -2.063986    0.519409    0.128756
     11          8           0        3.173178    0.315214   -0.203006
     12          1           0        3.586321    1.191117   -0.220198
     13          6           0        1.944341    2.961607   -0.098546
     14          1           0        2.642330    3.043365    0.747827
     15          1           0        2.530109    3.061968   -1.024300
     16          1           0        1.279088    3.828925   -0.047280
 ---------------------------------------------------------------------

 SCF Done:  E(RB3LYP) =  -346.808346358     A.U. after    1 cycles

 Alpha  occ. eigenvalues --  -19.19098 -10.25434 -10.20560 -10.20366 -10.19695
 Alpha  occ. eigenvalues --  -10.19566 -10.19043 -10.18948  -1.06712  -0.85675
 Alpha  occ. eigenvalues --   -0.78136  -0.74430  -0.69878  -0.61259  -0.60893
 Alpha  occ. eigenvalues --   -0.54474  -0.49778  -0.47066  -0.44300  -0.44111
 Alpha  occ. eigenvalues --   -0.41948  -0.40476  -0.39829  -0.39422  -0.36050
 Alpha  occ. eigenvalues --   -0.34326  -0.33864  -0.25192  -0.22694
 Alpha virt. eigenvalues --   -0.01238  -0.00803  -0.00007   0.01250   0.02407
 Alpha virt. eigenvalues --    0.03898   0.04546   0.04638   0.06029   0.06576
 Alpha virt. eigenvalues --    0.07570   0.07986   0.09165   0.09887   0.11804

 Mulliken charges:
               1
     1  C   -0.402746
     2  C    0.202212
     3  C   -0.211732
     4  C    1.238255
     5  C   -1.050131
     6  C   -0.040078
     7  H    0.178390
     8  H    0.190814
     9  H    0.172659
    10  H    0.175146
    11  O   -0.674768
    12  H    0.482966
    13  C   -0.930363
    14  H    0.224054
    15  H    0.224111
    16  H    0.221210
 Sum of Mulliken charges =   0.00000

 Dipole moment (field-independent basis, Debye):
    X=              0.0972    Y=              1.7969    Z=              0.0122  Tot=              1.7996
 Quadrupole moment (field-independent basis, Debye-Ang):
   XX=            -45.0105   YY=            -40.6736   ZZ=            -51.9358
   XY=              6.3365   XZ=             -0.3740   YZ=             -0.2953

  Exact polarizability: 100.641   5.891  98.340  -3.019   0.105  51.884
 Approx polarizability: 159.121   3.002 149.696  -5.313   0.580  74.585

                      1                      2                      3
                      A                      A                      A
 Frequencies --    166.9356               170.9494               257.1508
 Red. masses --      1.3333                 1.7919                 3.1149
 Frc consts  --      0.0219                 0.0309                 0.1214
 IR Inten    --      1.9947                 0.1002                17.0025

                      4                      5                      6
                      A                      A                      A
 Frequencies --    297.2629               310.3761               440.2119
 Red. masses --      1.2300                 3.1356                 4.0059
 Frc consts  --      0.0640                 0.1780                 0.4574
 IR Inten    --     94.2233                 0.9154                 9.3662

                      7                      8                      9
                      A                      A                      A
 Frequencies --    449.3816               528.7398               548.6909
 Red. masses --      2.9581                 4.6994                 3.4693
 Frc consts  --      0.3520                 0.7741                 0.6154
 IR Inten    --      4.9635                 1.0635                 1.1607

                     10                     11                     12
                      A                      A                      A
 Frequencies --    591.9222               708.9465               759.0529
 Red. masses --      6.5704                 3.3373                 4.8694
 Frc consts  --      1.3564                 0.9883                 1.6530
 IR Inten    --      2.2085                 2.1024                 8.8718

                     13                     14                     15
                      A                      A                      A
 Frequencies --    763.4040               849.6403               865.0590
 Red. masses --      1.2917                 4.6729                 1.3545
 Frc consts  --      0.4435                 1.9875                 0.5972
 IR Inten    --     69.5108                 8.4087                 1.3073

                     16                     17                     18
                      A                      A                      A
 Frequencies --    942.4620               981.0000              1008.2058
 Red. masses --      1.3561                 1.2693                 1.5889
 Frc consts  --      0.7097                 0.7197                 0.9516
 IR Inten    --      2.1950                 0.0295                 6.3293

                     19                     20                     21
                      A                      A                      A
 Frequencies --   1064.7623              1069.7966              1129.8884
 Red. masses --      2.2260                 1.4713                 1.7322
 Frc consts  --      1.4869                 0.9921                 1.3029
 IR Inten    --     18.0799                 1.4535                 0.5024

                     22                     23                     24
                      A                      A                      A
 Frequencies --   1191.0761              1199.7055              1234.7347
 Red. masses --      1.2411                 1.1963                 3.0145
 Frc consts  --      1.0373                 1.0145                 2.7078
 IR Inten    --     50.4569                22.3372               123.6918

                     25                     26                     27
                      A                      A                      A
 Frequencies --   1290.8541              1334.5763              1374.7184
 Red. masses --      2.7062                 1.6954                 2.9129
 Frc consts  --      2.6568                 1.7791                 3.2435
 IR Inten    --     40.4285                 3.6217                21.3234

                     28                     29                     30
                      A                      A                      A
 Frequencies --   1440.5598              1491.9358              1515.8420
 Red. masses --      1.2447                 1.8684                 1.0422
 Frc consts  --      1.5219                 2.4503                 1.4109
 IR Inten    --      1.7642                15.4832                 7.7285

                     31                     32                     33
                      A                      A                      A
 Frequencies --   1528.5343              1537.5952              1635.2627
 Red. masses --      1.5227                 1.8386                 5.5501
 Frc consts  --      2.0961                 2.5611                 8.7443
 IR Inten    --     15.9162                69.0024                41.7289

                     34                     35                     36
                      A                      A                      A
 Frequencies --   1667.3810              3012.2799              3054.1393
 Red. masses --      5.9812                 1.0415                 1.1011
 Frc consts  --      9.7974                 5.5681                 6.0511
 IR Inten    --      7.9776                39.3550                22.9242

                     37                     38                     39
                      A                      A                      A
 Frequencies --   3119.1196              3170.9136              3185.6801
 Red. masses --      1.0952                 1.0876                 1.0883
 Frc consts  --      6.2777                 6.4430                 6.5071
 IR Inten    --     12.8643                10.2839                10.9829

                     40                     41                     42
                      A                      A                      A
 Frequencies --   3201.9969              3211.6882              3768.9266
 Red. masses --      1.0930                 1.0960                 1.0659
 Frc consts  --      6.6027                 6.6611                 8.9206
 IR Inten    --     24.4791                10.4088                50.5325

 - Thermochemistry -
 -------------------
 Temperature   298.150 Kelvin.  Pressure   1.00000 Atm.
 Atom     1 has atomic number  6 and mass  12.00000

 Molecular mass:   108.05751 amu.
 Principal axes and moments of inertia in atomic units:
                           1         2         3
     Eigenvalues --   559.96737 822.748151371.36650
           X            0.85825  -0.50937   0.06282
           Y            0.51091   0.85958  -0.01020
           Z           -0.04880   0.04085   0.99797
 This molecule is an asymmetric top.
 Rotational symmetry number  1.
 Warning -- assumption of classical behavior for rotation
           may cause significant error
 Rotational temperatures (Kelvin)      0.15468     0.10527     0.06316
 Rotational constants (GHZ):           3.22294     2.19355     1.31602
 Zero-point vibrational energy     347343.9 (Joules/Mol)
                                   83.01718 (Kcal/Mol)
 Warning -- explicit consideration of  10 degrees of freedom as
           vibrations may cause significant error
 Vibrational temperatures:    240.18   245.96   369.98   427.69   446.56
          (Kelvin)            633.37   646.56   760.74   789.44   851.64
                             1020.02  1092.11  1098.37  1222.44  1244.63
                             1355.99  1411.44  1450.58  1531.96  1539.20
                             1625.66  1713.69  1726.11  1776.51  1857.25
                             1920.16  1977.91  2072.64  2146.56  2180.96
                             2199.22  2212.26  2352.78  2398.99  4334.00
                             4394.23  4487.72  4562.24  4583.48  4606.96
                             4620.90  5422.64

 Zero-point correction=                           0.132296 (Hartree/Particle)
 Thermal correction to Energy=                    0.139479
 Thermal correction to Enthalpy=                  0.140423
 Thermal correction to Gibbs Free Energy=         0.101292
 Sum of electronic and zero-point Energies=           -346.676050
 Sum of electronic and thermal Energies=              -346.668868
 Sum of electronic and thermal Enthalpies=            -346.667924
 Sum of electronic and thermal Free Energies=         -346.707055

                     E (Thermal)             CV                S
                      KCal/Mol        Cal/Mol-Kelvin    Cal/Mol-Kelvin
 Total                   87.524             27.843             82.358
 Electronic               0.000              0.000              0.000
 Translational            0.889              2.981             39.949
 Rotational               0.889              2.981             27.937
 Vibrational             85.747             21.881             14.472
 Vibration     1          0.624              1.883              2.470
 Vibration     2          0.626              1.878              2.425
 Vibration     3          0.667              1.751              1.681
 Vibration     4          0.691              1.679              1.432
 Vibration     5          0.699              1.654              1.360
 Vibration     6          0.800              1.382              0.826
 Vibration     7          0.808              1.362              0.798
 Vibration     8          0.884              1.186              0.590
 Vibration     9          0.904              1.143              0.547
 Vibration    10          0.949              1.049              0.464

 Optimization completed.
    -- Stationary point found.
 Normal termination of Gaussian 16 at Fri Sep 15 03:57:37 2023.
