 Gaussian 16, Revision B.01,
 Gaussian 16:  EM64L-G16RevB.01 20-Dec-2017

 ----------------------------------------------------------------------
 # opt freq rb3lyp/6-31+g(d) geom=connectivity empiricaldispersion=gd3
 volume
 ----------------------------------------------------------------------

 -------------------
 Title Card Required
 -------------------
 Symbolic Z-matrix:
 Charge =  0 Multiplicity = 1

 SCF Done:  E(RB3LYP) =  -308.414773228     A.U. after   13 cycles
 SCF Done:  E(RB3LYP) =  -308.414823748     A.U. after   10 cycles
 SCF Done:  E(RB3LYP) =  -308.414824923     A.U. after    9 cycles
 SCF Done:  E(RB3LYP) =  -308.414824865     A.U. after    9 cycles
 SCF Done:  E(RB3LYP) =  -308.414824985     A.U. after    9 cycles
 Optimization completed.
    -- Stationary point found.
 Normal termination of Gaussian 16 at Mon Sep 18 07:19:36 2023.

 ---------------------------------------------------------------------
 #N Geom=AllCheck Guess=TCheck SCRF=Check GenChk RB3LYP/6-31+G(d) Freq
 ---------------------------------------------------------------------

 Structure from the checkpoint file:  "molecule_1.chk"
 -------------------
 Title Card Required
 -------------------
 Charge =  0 Multiplicity = 1

                         Standard orientation:
 ---------------------------------------------------------------------
 Center     Atomic      Atomic             Coordinates (Angstroms)
 Number     Number       Type             X           Y           Z
 ---------------------------------------------------------------------
      1          6           0       -1.513914    1.210199   -0.000004
      2          6           0       -0.119290    1.214645    0.000001
      3          6           0        0.594548    0.000004    0.000003
      4          6           0       -0.119283   -1.214642    0.000001
      5          6           0       -1.513907   -1.210204   -0.000004
      6          6           0       -2.215493   -0.000005   -0.000006
      7          1           0       -2.054336    2.153242   -0.000005
      8          1           0        0.428612    2.152371    0.000002
      9          1           0        0.428625   -2.152365    0.000002
     10          1           0       -2.054324   -2.153251   -0.000005
     11          1           0       -3.302367   -0.000008   -0.000009
     12          6           0        2.025049    0.000008    0.000008
     13          6           0        3.237166    0.000007    0.000007
     14          1           0        4.304542   -0.000056   -0.000023
 ---------------------------------------------------------------------

 SCF Done:  E(RB3LYP) =  -308.414824985     A.U. after    1 cycles

 The electronic state is 1-A.
 Alpha  occ. eigenvalues --  -10.22796 -10.20875 -10.20875 -10.20741 -10.20653
 Alpha  occ. eigenvalues --  -10.20636 -10.20305 -10.19692  -0.87282  -0.79177
 Alpha  occ. eigenvalues --   -0.76034  -0.73444  -0.63426  -0.61936  -0.55798
 Alpha  occ. eigenvalues --   -0.52334  -0.48763  -0.46645  -0.44572  -0.43530
 Alpha  occ. eigenvalues --   -0.38917  -0.37054  -0.36171  -0.31741  -0.28474
 Alpha  occ. eigenvalues --   -0.26673  -0.24270
 Alpha virt. eigenvalues --   -0.04488  -0.02200   0.00266   0.02052   0.02237
 Alpha virt. eigenvalues --    0.03024   0.03392   0.04896   0.05242   0.05349
 Alpha virt. eigenvalues --    0.05621   0.06973   0.08771   0.09000   0.09206

 Mulliken charges:
               1
     1  C   -0.105387
     2  C   -0.123039
     3  C   -0.353467
     4  C   -0.123065
     5  C   -0.105381
     6  C   -0.187067
     7  H    0.183914
     8  H    0.194170
     9  H    0.194170
    10  H    0.183914
    11  H    0.182028
    12  C    0.200260
    13  C   -0.395096
    14  H    0.254046
 Sum of Mulliken charges =   0.00000

 Dipole moment (field-independent basis, Debye):
    X=             -0.7105    Y=             -0.0001    Z=              0.0000  Tot=              0.7105
 Quadrupole moment (field-independent basis, Debye-Ang):
   XX=            -38.8523   YY=            -42.8613   ZZ=            -51.6647
   XY=             -0.0004   XZ=             -0.0002   YZ=              0.0000

  Exact polarizability: 142.651   0.000  86.679   0.000   0.000  49.414
 Approx polarizability: 228.480   0.000 139.558   0.001   0.000  69.024

                      1                      2                      3
                      A                      A                      A
 Frequencies --    144.4835               160.3737               377.4884
 Red. masses --      4.0059                 3.8742                 4.0123
 Frc consts  --      0.0493                 0.0587                 0.3369
 IR Inten    --      2.0653                 1.4993                 4.4974

                      4                      5                      6
                      A                      A                      A
 Frequencies --    411.5008               471.1947               534.8772
 Red. masses --      2.9147                 7.1007                 6.6145
 Frc consts  --      0.2908                 0.9289                 1.1150
 IR Inten    --      0.0000                 0.2990                 2.9501

                      7                      8                      9
                      A                      A                      A
 Frequencies --    562.3765               590.3318               633.6606
 Red. masses --      3.8472                 1.2352                 4.6761
 Frc consts  --      0.7169                 0.2536                 1.1062
 IR Inten    --     13.7288                56.4028                 4.5542

                     10                     11                     12
                      A                      A                      A
 Frequencies --    647.1116               702.6305               773.7566
 Red. masses --      1.3333                 1.8873                 1.8005
 Frc consts  --      0.3290                 0.5490                 0.6351
 IR Inten    --     51.0378                39.3514                48.2559

                     13                     14                     15
                      A                      A                      A
 Frequencies --    775.4088               855.7557               933.3346
 Red. masses --      5.7494                 1.2473                 1.4098
 Frc consts  --      2.0367                 0.5382                 0.7236
 IR Inten    --      2.7645                 0.0000                 3.1473

                     16                     17                     18
                      A                      A                      A
 Frequencies --    981.0056              1003.5443              1013.1517
 Red. masses --      1.3648                 1.2827                 6.2734
 Frc consts  --      0.7739                 0.7611                 3.7941
 IR Inten    --      0.0000                 0.0220                 0.0028

                     19                     20                     21
                      A                      A                      A
 Frequencies --   1052.5942              1109.6208              1200.4394
 Red. masses --      2.2725                 1.6193                 1.1094
 Frc consts  --      1.4835                 1.1747                 0.9419
 IR Inten    --      4.6022                 5.1541                 0.0218

                     22                     23                     24
                      A                      A                      A
 Frequencies --   1215.7716              1226.7370              1327.8779
 Red. masses --      1.2198                 3.1100                 3.3247
 Frc consts  --      1.0623                 2.7575                 3.4540
 IR Inten    --      0.0661                 1.3949                 0.3317

                     25                     26                     27
                      A                      A                      A
 Frequencies --   1363.7625              1482.2065              1532.1420
 Red. masses --      1.6838                 2.1789                 2.1540
 Frc consts  --      1.8451                 2.8204                 2.9791
 IR Inten    --      0.4104                 3.9566                13.3881

                     28                     29                     30
                      A                      A                      A
 Frequencies --   1619.8939              1650.6155              2209.7145
 Red. masses --      5.0574                 5.3152                 6.1709
 Frc consts  --      7.8190                 8.5321                17.7528
 IR Inten    --      1.0796                 2.2858                10.1154

                     31                     32                     33
                      A                      A                      A
 Frequencies --   3180.4718              3189.6249              3200.6153
 Red. masses --      1.0856                 1.0887                 1.0922
 Frc consts  --      6.4702                 6.5259                 6.5922
 IR Inten    --      0.3405                 6.0664                20.5759

                     34                     35                     36
                      A                      A                      A
 Frequencies --   3208.6174              3212.8466              3481.8673
 Red. masses --      1.0942                 1.0973                 1.1562
 Frc consts  --      6.6373                 6.6737                 8.2587
 IR Inten    --     23.7118                 5.7888                87.4632

 - Thermochemistry -
 -------------------
 Temperature   298.150 Kelvin.  Pressure   1.00000 Atm.
 Atom     1 has atomic number  6 and mass  12.00000

 Molecular mass:   102.04695 amu.
 Principal axes and moments of inertia in atomic units:
                           1         2         3
     Eigenvalues --   318.689241185.395141504.08438
           X            1.00000   0.00000   0.00000
           Y            0.00000   1.00000   0.00000
           Z            0.00000   0.00000   1.00000
 This molecule is an asymmetric top.
 Rotational symmetry number  1.
 Rotational temperatures (Kelvin)      0.27178     0.07307     0.05759
 Rotational constants (GHZ):           5.66301     1.52248     1.19989
 Zero-point vibrational energy     287327.5 (Joules/Mol)
                                   68.67292 (Kcal/Mol)
 Warning -- explicit consideration of   8 degrees of freedom as
           vibrations may cause significant error
 Vibrational temperatures:    207.88   230.74   543.12   592.06   677.94
          (Kelvin)            769.57   809.13   849.36   911.70   931.05
                             1010.93  1113.26  1115.64  1231.24  1342.86
                             1411.45  1443.88  1457.70  1514.45  1596.50
                             1727.16  1749.22  1765.00  1910.52  1962.15
                             2132.56  2204.41  2330.67  2374.87  3179.29
                             4575.99  4589.16  4604.97  4616.48  4622.57
                             5009.63

 Zero-point correction=                           0.109437 (Hartree/Particle)
 Thermal correction to Energy=                    0.115891
 Thermal correction to Enthalpy=                  0.116836
 Thermal correction to Gibbs Free Energy=         0.079014
 Sum of electronic and zero-point Energies=           -308.305388
 Sum of electronic and thermal Energies=              -308.298934
 Sum of electronic and thermal Enthalpies=            -308.297989
 Sum of electronic and thermal Free Energies=         -308.335811

                     E (Thermal)             CV                S
                      KCal/Mol        Cal/Mol-Kelvin    Cal/Mol-Kelvin
 Total                   72.723             25.319             79.603
 Electronic               0.000              0.000              0.000
 Translational            0.889              2.981             39.778
 Rotational               0.889              2.981             27.832
 Vibrational             70.946             19.357             11.993
 Vibration     1          0.616              1.909              2.744
 Vibration     2          0.622              1.891              2.545
 Vibration     3          0.748              1.518              1.049
 Vibration     4          0.775              1.445              0.921
 Vibration     5          0.828              1.314              0.734
 Vibration     6          0.890              1.173              0.576
 Vibration     7          0.918              1.113              0.519
 Vibration     8          0.948              1.052              0.467

 Optimization completed.
    -- Stationary point found.
 Normal termination of Gaussian 16 at Mon Sep 18 07:20:14 2023.
