 Gaussian 16, Revision B.01,
 Gaussian 16:  EM64L-G16RevB.01 20-Dec-2017

 ----------------------------------------------------------------
 # opt freq b3lyp/6-31+g(d) nosymm empiricaldispersion=gd3 volume
 ----------------------------------------------------------------

 -----------
 molecule_10
 -----------
 Symbolic Z-matrix:
 Charge =  0 Multiplicity = 1

 SCF Done:  E(RB3LYP) =  -702.892394810     A.U. after   13 cycles
 SCF Done:  E(RB3LYP) =  -702.894651006     A.U. after   10 cycles
 SCF Done:  E(RB3LYP) =  -702.894832886     A.U. after   10 cycles
 SCF Done:  E(RB3LYP) =  -702.894844484     A.U. after    9 cycles
 SCF Done:  E(RB3LYP) =  -702.894849098     A.U. after    9 cycles
 SCF Done:  E(RB3LYP) =  -702.857472962     A.U. after   12 cycles
 SCF Done:  E(RB3LYP) =  -702.895528500     A.U. after   11 cycles
 SCF Done:  E(RB3LYP) =  -702.895611347     A.U. after   12 cycles
 SCF Done:  E(RB3LYP) =  -702.899529932     A.U. after   12 cycles
 SCF Done:  E(RB3LYP) =  -702.908116529     A.U. after   14 cycles
 SCF Done:  E(RB3LYP) =  -702.910416632     A.U. after   12 cycles
 SCF Done:  E(RB3LYP) =  -702.911004737     A.U. after   12 cycles
 SCF Done:  E(RB3LYP) =  -702.911140922     A.U. after   11 cycles
 SCF Done:  E(RB3LYP) =  -702.911177956     A.U. after   10 cycles
 SCF Done:  E(RB3LYP) =  -702.911190288     A.U. after   10 cycles
 SCF Done:  E(RB3LYP) =  -702.911193988     A.U. after    9 cycles
 SCF Done:  E(RB3LYP) =  -702.911195289     A.U. after    9 cycles
 SCF Done:  E(RB3LYP) =  -702.911195556     A.U. after    9 cycles
 Optimization completed.
    -- Stationary point found.
 Normal termination of Gaussian 16 at Thu Sep 14 11:52:01 2023.

 ---------------------------------------------------------------------
 #N Geom=AllCheck Guess=TCheck SCRF=Check GenChk RB3LYP/6-31+G(d) Freq
 ---------------------------------------------------------------------

 Structure from the checkpoint file:  "MOLECULE_14.chk"
 -----------
 molecule_10
 -----------
 Charge =  0 Multiplicity = 1

                          Input orientation:
 ---------------------------------------------------------------------
 Center     Atomic      Atomic             Coordinates (Angstroms)
 Number     Number       Type             X           Y           Z
 ---------------------------------------------------------------------
      1          6           0       -0.890942   -0.589304    0.358074
      2          6           0        0.481686   -0.552988    0.611196
      3          6           0        1.141672    0.662709    0.471466
      4          6           0        0.490813    1.831455    0.092728
      5          6           0       -0.881930    1.769424   -0.154674
      6          6           0       -1.598575    0.564632   -0.027801
      7          1           0       -1.427206   -1.528788    0.461165
      8          1           0        1.037865   -1.436262    0.909552
      9          1           0        1.053909    2.754772   -0.001771
     10          1           0       -1.411188    2.670807   -0.451699
     11          6           0       -5.190435    1.647198   -0.931792
     12          6           0       -5.199230   -0.768937   -0.411854
     13          6           0       -5.927029    0.557490   -0.134010
     14          1           0       -5.575771    2.641511   -0.679499
     15          1           0       -5.342304   -1.068630   -1.459589
     16          5           0       -3.134434    0.510471   -0.304663
     17          1           0       -5.333694    1.490941   -2.010254
     18          1           0       -5.591662   -1.568984    0.225881
     19          6           0       -7.377703    0.456534   -0.627757
     20          1           0       -7.918299   -0.330618   -0.087825
     21          1           0       -7.912001    1.399826   -0.460151
     22          1           0       -7.426985    0.226136   -1.699431
     23          6           0       -5.903409    0.881193    1.371460
     24          1           0       -6.411536    1.833022    1.568103
     25          1           0       -6.417507    0.097757    1.941367
     26          1           0       -4.882633    0.960843    1.758256
     27          8           0       -3.783481    1.664914   -0.665038
     28          8           0       -3.792192   -0.685249   -0.158138
     29          9           0        2.480196    0.710685    0.715673
 ---------------------------------------------------------------------

 SCF Done:  E(RB3LYP) =  -702.911195556     A.U. after    1 cycles

 Alpha  occ. eigenvalues --  -24.71903 -19.16844 -19.16843 -10.27834 -10.25116
 Alpha  occ. eigenvalues --  -10.25115 -10.22026 -10.20045 -10.20044 -10.19948
 Alpha  occ. eigenvalues --  -10.19908 -10.19907 -10.19089 -10.17620  -6.78820
 Alpha  occ. eigenvalues --   -1.22278  -1.05813  -1.01845  -0.86042  -0.83678
 Alpha  occ. eigenvalues --   -0.75682  -0.74817  -0.70667  -0.70017  -0.69842
 Alpha  occ. eigenvalues --   -0.62181  -0.61391  -0.58966  -0.54401  -0.51959
 Alpha  occ. eigenvalues --   -0.51817  -0.50402  -0.48242  -0.47311  -0.46944
 Alpha  occ. eigenvalues --   -0.46460  -0.45910  -0.43753  -0.43223  -0.42910
 Alpha  occ. eigenvalues --   -0.42191  -0.40269  -0.39719  -0.39437  -0.38878
 Alpha  occ. eigenvalues --   -0.37534  -0.35874  -0.35371  -0.34497  -0.33202
 Alpha  occ. eigenvalues --   -0.32713  -0.30065  -0.29732  -0.26078  -0.24732
 Alpha virt. eigenvalues --   -0.03040  -0.01635  -0.01027   0.00794   0.01492
 Alpha virt. eigenvalues --    0.01526   0.02614   0.03212   0.03650   0.04123
 Alpha virt. eigenvalues --    0.04602   0.05062   0.05088   0.05579   0.06360

 Mulliken charges:
               1
     1  C   -0.079768
     2  C   -0.089275
     3  C    0.194841
     4  C   -0.089369
     5  C   -0.079793
     6  C   -0.477052
     7  H    0.202635
     8  H    0.196164
     9  H    0.196164
    10  H    0.202653
    11  C   -0.345697
    12  C   -0.345798
    13  C   -0.086381
    14  H    0.201427
    15  H    0.202699
    16  B    1.014714
    17  H    0.202690
    18  H    0.201426
    19  C   -0.714997
    20  H    0.220584
    21  H    0.220596
    22  H    0.217411
    23  C   -0.532944
    24  H    0.213696
    25  H    0.213707
    26  H    0.231359
    27  O   -0.466729
    28  O   -0.466690
    29  F   -0.358274
 Sum of Mulliken charges =   0.00000

 Dipole moment (field-independent basis, Debye):
    X=             -4.5640    Y=             -0.1109    Z=             -0.5929  Tot=              4.6037
 Quadrupole moment (field-independent basis, Debye-Ang):
   XX=            -64.6260   YY=            -85.7557   ZZ=            -90.0044
   XY=             -2.2317   XZ=              1.9613   YZ=             -1.3466

  Exact polarizability: 193.725   2.678 137.556  13.285  -7.475 105.021
 Approx polarizability: 247.081   3.938 221.921  18.530 -15.486 154.347

                      1                      2                      3
                      A                      A                      A
 Frequencies --     42.4109                47.2024                91.3553
 Red. masses --      5.2692                 3.5176                 5.1083
 Frc consts  --      0.0056                 0.0046                 0.0251
 IR Inten    --      0.3679                 0.0050                 0.2863

                      4                      5                      6
                      A                      A                      A
 Frequencies --    116.3956               144.7922               212.2953
 Red. masses --      6.0977                 3.6741                 1.1143
 Frc consts  --      0.0487                 0.0454                 0.0296
 IR Inten    --      0.3175                 0.2895                 0.0504

                      7                      8                      9
                      A                      A                      A
 Frequencies --    224.0369               237.7439               243.1316
 Red. masses --      5.0270                 1.3377                 4.6103
 Frc consts  --      0.1487                 0.0445                 0.1606
 IR Inten    --      4.4546                 0.1191                 1.4837

                     10                     11                     12
                      A                      A                      A
 Frequencies --    284.8641               312.9405               336.0725
 Red. masses --      1.5716                 6.7290                 5.3225
 Frc consts  --      0.0751                 0.3883                 0.3542
 IR Inten    --      0.0062                 0.7365                 5.1643

                     13                     14                     15
                      A                      A                      A
 Frequencies --    365.6659               407.9419               423.4480
 Red. masses --      2.4332                 3.2591                 2.9889
 Frc consts  --      0.1917                 0.3196                 0.3158
 IR Inten    --      0.6582                 0.9363                 0.0000

                     16                     17                     18
                      A                      A                      A
 Frequencies --    427.1954               444.6011               509.9449
 Red. masses --      2.0701                 3.6826                 5.0716
 Frc consts  --      0.2226                 0.4289                 0.7770
 IR Inten    --      0.4348                 0.0039                 4.8511

                     19                     20                     21
                      A                      A                      A
 Frequencies --    510.9451               525.0011               622.6355
 Red. masses --      3.1153                 4.9093                 5.2183
 Frc consts  --      0.4792                 0.7972                 1.1919
 IR Inten    --      4.3508                 7.9524                20.5831

                     22                     23                     24
                      A                      A                      A
 Frequencies --    644.0189               654.4745               708.4578
 Red. masses --      7.2171                 4.8994                 6.9652
 Frc consts  --      1.7636                 1.2365                 2.0597
 IR Inten    --      0.6631                46.9324                 5.4072

                     25                     26                     27
                      A                      A                      A
 Frequencies --    739.3903               819.4453               829.8631
 Red. masses --      4.6863                 3.7371                 6.5549
 Frc consts  --      1.5095                 1.4785                 2.6597
 IR Inten    --     13.2391                 3.9603                28.6114

                     28                     29                     30
                      A                      A                      A
 Frequencies --    838.7368               856.0096               925.4346
 Red. masses --      1.2433                 1.6322                 1.9008
 Frc consts  --      0.5153                 0.7047                 0.9591
 IR Inten    --      0.0006                48.5789                 1.9519

                     31                     32                     33
                      A                      A                      A
 Frequencies --    938.7550               965.9064               971.0680
 Red. masses --      2.2183                 1.3450                 1.5451
 Frc consts  --      1.1518                 0.7394                 0.8584
 IR Inten    --      3.4276                 0.1192                 0.4202

                     34                     35                     36
                      A                      A                      A
 Frequencies --    976.4091               984.3009               991.1996
 Red. masses --      1.3085                 3.8983                 1.3504
 Frc consts  --      0.7350                 2.2253                 0.7817
 IR Inten    --      0.0482                 1.5280                 0.0006

                     37                     38                     39
                      A                      A                      A
 Frequencies --   1023.9737              1037.2545              1060.0954
 Red. masses --      4.0960                 2.6038                 1.8311
 Frc consts  --      2.5304                 1.6506                 1.2124
 IR Inten    --      2.6270                19.2838                 4.1668

                     40                     41                     42
                      A                      A                      A
 Frequencies --   1065.9562              1126.5394              1165.3824
 Red. masses --      1.5815                 1.3746                 3.6906
 Frc consts  --      1.0587                 1.0278                 2.9531
 IR Inten    --      0.1554                 9.4653               270.6352

                     43                     44                     45
                      A                      A                      A
 Frequencies --   1194.3593              1216.5863              1246.9528
 Red. masses --      1.3851                 2.3695                 2.3766
 Frc consts  --      1.1641                 2.0663                 2.1772
 IR Inten    --     30.7453                 1.6267                18.7066

                     46                     47                     48
                      A                      A                      A
 Frequencies --   1248.2654              1251.2602              1276.7852
 Red. masses --      2.5400                 1.4978                 2.4599
 Frc consts  --      2.3318                 1.3817                 2.3627
 IR Inten    --     94.3068                11.8235               106.5846

                     49                     50                     51
                      A                      A                      A
 Frequencies --   1320.5582              1333.0588              1341.1884
 Red. masses --      1.7694                 1.4776                 3.6551
 Frc consts  --      1.8180                 1.5471                 3.8738
 IR Inten    --     13.9807                 9.9100               758.6523

                     52                     53                     54
                      A                      A                      A
 Frequencies --   1342.8881              1349.3996              1428.7585
 Red. masses --      4.0604                 1.6595                 1.3256
 Frc consts  --      4.3142                 1.7804                 1.5943
 IR Inten    --      0.6084                99.2819                 4.4201

                     55                     56                     57
                      A                      A                      A
 Frequencies --   1430.8786              1431.3280              1460.8682
 Red. masses --      2.5405                 1.2448                 1.2404
 Frc consts  --      3.0647                 1.5026                 1.5597
 IR Inten    --      0.2468                 7.7254                 8.1718

                     58                     59                     60
                      A                      A                      A
 Frequencies --   1461.6385              1512.3087              1512.5596
 Red. masses --      2.0344                 1.0450                 1.0533
 Frc consts  --      2.5607                 1.4082                 1.4198
 IR Inten    --     75.6426                 0.0661                 2.0868

                     61                     62                     63
                      A                      A                      A
 Frequencies --   1530.1683              1530.8232              1540.0554
 Red. masses --      1.0570                 1.1131                 1.0713
 Frc consts  --      1.4582                 1.5368                 1.4970
 IR Inten    --      6.3885                 5.9634                30.2261

                     64                     65                     66
                      A                      A                      A
 Frequencies --   1545.0705              1551.9088              1632.1422
 Red. masses --      1.1142                 2.4860                 6.9321
 Frc consts  --      1.5672                 3.5277                10.8801
 IR Inten    --     10.2094                14.9105                19.1648

                     67                     68                     69
                      A                      A                      A
 Frequencies --   1648.9357              3025.1120              3029.5805
 Red. masses --      5.5905                 1.0637                 1.0531
 Frc consts  --      8.9559                 5.7352                 5.6947
 IR Inten    --    139.7463                29.5042                29.0213

                     70                     71                     72
                      A                      A                      A
 Frequencies --   3036.5412              3045.2551              3083.6405
 Red. masses --      1.0426                 1.0398                 1.1013
 Frc consts  --      5.6642                 5.6811                 6.1702
 IR Inten    --     98.5608                28.4339                24.4372

                     73                     74                     75
                      A                      A                      A
 Frequencies --   3086.7091              3101.2286              3101.6062
 Red. masses --      1.1025                 1.1024                 1.1021
 Frc consts  --      6.1888                 6.2469                 6.2465
 IR Inten    --     22.4852                 1.9118                47.6728

                     76                     77                     78
                      A                      A                      A
 Frequencies --   3106.8303              3124.7098              3196.5105
 Red. masses --      1.1017                 1.1002                 1.0885
 Frc consts  --      6.2655                 6.3290                 6.5532
 IR Inten    --     58.1235                27.1666                 4.3353

                     79                     80                     81
                      A                      A                      A
 Frequencies --   3197.1084              3215.8407              3216.8606
 Red. masses --      1.0883                 1.0942                 1.0948
 Frc consts  --      6.5542                 6.6671                 6.6750
 IR Inten    --      4.5099                 9.5906                 5.8219

 - Thermochemistry -
 -------------------
 Temperature   298.150 Kelvin.  Pressure   1.00000 Atm.
 Atom     1 has atomic number  6 and mass  12.00000

 Molecular mass:   208.10709 amu.
 Principal axes and moments of inertia in atomic units:
                           1         2         3
     Eigenvalues --   905.909297061.301527498.87636
           X            0.99535   0.00362  -0.09630
           Y            0.01690   0.97725   0.21141
           Z            0.09488  -0.21205   0.97264
 This molecule is an asymmetric top.
 Rotational symmetry number  1.
 Warning -- assumption of classical behavior for rotation
           may cause significant error
 Rotational temperatures (Kelvin)      0.09561     0.01227     0.01155
 Rotational constants (GHZ):           1.99219     0.25558     0.24067
 Zero-point vibrational energy     626601.4 (Joules/Mol)
                                  149.76133 (Kcal/Mol)
 Warning -- explicit consideration of  20 degrees of freedom as
           vibrations may cause significant error
 Vibrational temperatures:     61.02    67.91   131.44   167.47   208.32
          (Kelvin)            305.45   322.34   342.06   349.81   409.86
                              450.25   483.53   526.11   586.94   609.25
                              614.64   639.68   733.70   735.14   755.36
                              895.83   926.60   941.64  1019.31  1063.82
                             1179.00  1193.99  1206.76  1231.61  1331.49
                             1350.66  1389.72  1397.15  1404.83  1416.19
                             1426.12  1473.27  1492.38  1525.24  1533.67
                             1620.84  1676.73  1718.42  1750.40  1794.09
                             1795.98  1800.28  1837.01  1899.99  1917.97
                             1929.67  1932.12  1941.49  2055.66  2058.72
                             2059.36  2101.86  2102.97  2175.87  2176.24
                             2201.57  2202.51  2215.80  2223.01  2232.85
                             2348.29  2372.45  4352.46  4358.89  4368.91
                             4381.44  4436.67  4441.09  4461.98  4462.52
                             4470.04  4495.76  4599.07  4599.93  4626.88
                             4628.34

 Zero-point correction=                           0.238660 (Hartree/Particle)
 Thermal correction to Energy=                    0.252265
 Thermal correction to Enthalpy=                  0.253209
 Thermal correction to Gibbs Free Energy=         0.198126
 Sum of electronic and zero-point Energies=           -702.672536
 Sum of electronic and thermal Energies=              -702.658931
 Sum of electronic and thermal Enthalpies=            -702.657987
 Sum of electronic and thermal Free Energies=         -702.713069

                     E (Thermal)             CV                S
                      KCal/Mol        Cal/Mol-Kelvin    Cal/Mol-Kelvin
 Total                  158.299             52.982            115.931
 Electronic               0.000              0.000              0.000
 Translational            0.889              2.981             41.903
 Rotational               0.889              2.981             32.239
 Vibrational            156.521             47.021             41.789
 Vibration     1          0.595              1.980              5.143
 Vibration     2          0.595              1.979              4.931
 Vibration     3          0.602              1.955              3.631
 Vibration     4          0.608              1.936              3.159
 Vibration     5          0.616              1.908              2.740
 Vibration     6          0.643              1.822              2.024
 Vibration     7          0.649              1.804              1.926
 Vibration     8          0.656              1.783              1.820
 Vibration     9          0.659              1.774              1.780
 Vibration    10          0.683              1.702              1.504
 Vibration    11          0.701              1.649              1.347
 Vibration    12          0.717              1.603              1.231
 Vibration    13          0.739              1.543              1.098
 Vibration    14          0.773              1.453              0.934
 Vibration    15          0.786              1.419              0.880
 Vibration    16          0.789              1.411              0.868
 Vibration    17          0.804              1.373              0.812
 Vibration    18          0.865              1.228              0.634
 Vibration    19          0.866              1.226              0.631
 Vibration    20          0.880              1.195              0.598

                           ! Non-Optimized Parameters !
 Normal termination of Gaussian 16 at Thu Sep 14 11:56:52 2023.
