 Gaussian 16, Revision B.01,
 Gaussian 16:  EM64L-G16RevB.01 20-Dec-2017

 ----------------------------------------------------------------------
 # opt freq b3lyp/6-31+g(d) empiricaldispersion=gd3 scf=maxcycle=1000 v
 olume
 ----------------------------------------------------------------------

 -------------------
 Title Card Required
 -------------------
 Symbolic Z-matrix:
 Charge =  0 Multiplicity = 1

 SCF Done:  E(RB3LYP) =  -399.720679790     A.U. after   14 cycles
 SCF Done:  E(RB3LYP) =  -399.729091680     A.U. after   13 cycles
 SCF Done:  E(RB3LYP) =  -399.729404630     A.U. after   11 cycles
 SCF Done:  E(RB3LYP) =  -399.729428174     A.U. after   11 cycles
 SCF Done:  E(RB3LYP) =  -399.729430256     A.U. after   10 cycles
 SCF Done:  E(RB3LYP) =  -399.729430426     A.U. after    9 cycles
 SCF Done:  E(RB3LYP) =  -399.729431023     A.U. after   10 cycles
 SCF Done:  E(RB3LYP) =  -399.668225134     A.U. after   15 cycles
 SCF Done:  E(RB3LYP) =  -399.729411817     A.U. after   14 cycles
 SCF Done:  E(RB3LYP) =  -399.729463315     A.U. after   11 cycles
 SCF Done:  E(RB3LYP) =  -399.733820216     A.U. after   14 cycles
 SCF Done:  E(RB3LYP) =  -399.699182534     A.U. after   15 cycles
 SCF Done:  E(RB3LYP) =  -399.735483728     A.U. after   14 cycles
 SCF Done:  E(RB3LYP) =  -399.716806366     A.U. after   15 cycles
 SCF Done:  E(RB3LYP) =  -399.723004731     A.U. after   13 cycles
 SCF Done:  E(RB3LYP) =  -399.736069721     A.U. after   11 cycles
 SCF Done:  E(RB3LYP) =  -399.736009617     A.U. after   13 cycles
 SCF Done:  E(RB3LYP) =  -399.736303268     A.U. after   12 cycles
 SCF Done:  E(RB3LYP) =  -399.736313860     A.U. after   10 cycles
 Optimization completed.
    -- Stationary point found.
 Normal termination of Gaussian 16 at Tue Sep 19 06:50:08 2023.

 ---------------------------------------------------------------------
 #N Geom=AllCheck Guess=TCheck SCRF=Check GenChk RB3LYP/6-31+G(d) Freq
 ---------------------------------------------------------------------

 Structure from the checkpoint file:  "molecule34vol.chk"
 -------------------
 Title Card Required
 -------------------
 Charge =  0 Multiplicity = 1

                         Standard orientation:
 ---------------------------------------------------------------------
 Center     Atomic      Atomic             Coordinates (Angstroms)
 Number     Number       Type             X           Y           Z
 ---------------------------------------------------------------------
      1          6           0        0.370501   -1.211878   -0.000316
      2          6           0       -1.021414   -1.205545    0.000062
      3          6           0       -1.714048    0.013187   -0.000191
      4          6           0       -1.010866    1.225519   -0.000169
      5          6           0        0.378013    1.217650    0.000028
      6          6           0        1.084070   -0.001129    0.000032
      7          1           0        0.909115   -2.154477   -0.000016
      8          1           0       -1.569143   -2.145605    0.000402
      9          1           0       -1.568367    2.156649   -0.000168
     10          1           0        0.926192    2.154707   -0.000143
     11          8           0       -3.076398    0.088682    0.000323
     12          1           0       -3.467588   -0.799184   -0.000612
     13          6           0        2.516397   -0.008042    0.000082
     14          7           0        3.680723   -0.014302    0.000114
 ---------------------------------------------------------------------

 SCF Done:  E(RB3LYP) =  -399.736313860     A.U. after    1 cycles

 The electronic state is 1-A.
 Alpha  occ. eigenvalues --  -19.21996 -14.34460 -10.29092 -10.24660 -10.23736
 Alpha  occ. eigenvalues --  -10.23562 -10.23325 -10.22798 -10.22140  -1.09810
 Alpha  occ. eigenvalues --   -0.91538  -0.88673  -0.79044  -0.78663  -0.67355
 Alpha  occ. eigenvalues --   -0.65204  -0.58142  -0.57515  -0.51090  -0.47740
 Alpha  occ. eigenvalues --   -0.46028  -0.44452  -0.44070  -0.41613  -0.39688
 Alpha  occ. eigenvalues --   -0.37927  -0.36682  -0.33958  -0.33866  -0.28995
 Alpha  occ. eigenvalues --   -0.25494
 Alpha virt. eigenvalues --   -0.05489  -0.04351  -0.02178   0.00133   0.01566
 Alpha virt. eigenvalues --    0.02195   0.03166   0.03964   0.04566   0.05623
 Alpha virt. eigenvalues --    0.06643   0.06989   0.07679   0.07964   0.08146

 Mulliken charges:
               1
     1  C   -0.562211
     2  C    0.271073
     3  C    0.027269
     4  C    0.136661
     5  C   -0.512519
     6  C    0.853496
     7  H    0.208341
     8  H    0.178152
     9  H    0.204602
    10  H    0.208808
    11  O   -0.666992
    12  H    0.479430
    13  C   -0.295499
    14  N   -0.530612
 Sum of Mulliken charges =   0.00000

 Dipole moment (field-independent basis, Debye):
    X=             -5.0573    Y=             -1.4053    Z=             -0.0016  Tot=              5.2489
 Quadrupole moment (field-independent basis, Debye-Ang):
   XX=            -67.6889   YY=            -43.6706   ZZ=            -54.8219
   XY=              5.8942   XZ=              0.0054   YZ=             -0.0001

  Exact polarizability: 138.558   1.214  85.280   0.004   0.001  47.484
 Approx polarizability: 224.813   0.791 138.734   0.007   0.005  67.912

                      1                      2                      3
                      A                      A                      A
 Frequencies --    105.0815               152.4188               261.2871
 Red. masses --      8.2320                 8.1057                 6.5917
 Frc consts  --      0.0536                 0.1109                 0.2651
 IR Inten    --      2.0720                 5.5832                 1.9671

                      4                      5                      6
                      A                      A                      A
 Frequencies --    370.7148               405.2544               416.7440
 Red. masses --      1.1072                 4.5059                 9.7963
 Frc consts  --      0.0897                 0.4360                 1.0024
 IR Inten    --    122.2436                10.3688                 0.3488

                      7                      8                      9
                      A                      A                      A
 Frequencies --    417.2601               479.7238               555.9006
 Red. masses --      3.0389                 4.9616                 3.0865
 Frc consts  --      0.3117                 0.6727                 0.5620
 IR Inten    --      0.0012                 1.0571                27.5101

                     10                     11                     12
                      A                      A                      A
 Frequencies --    556.8000               660.7555               707.1489
 Red. masses --      7.3698                 7.2017                 4.2402
 Frc consts  --      1.3462                 1.8525                 1.2493
 IR Inten    --      0.8716                 0.5974                 0.0075

                     13                     14                     15
                      A                      A                      A
 Frequencies --    709.1236               820.7219               850.1950
 Red. masses --      6.3440                 1.3176                 1.5851
 Frc consts  --      1.8796                 0.5229                 0.6751
 IR Inten    --     15.9877                16.0051                49.4835

                     16                     17                     18
                      A                      A                      A
 Frequencies --    850.9416               954.9344               975.9848
 Red. masses --      6.4790                 1.3061                 1.3274
 Frc consts  --      2.7641                 0.7017                 0.7450
 IR Inten    --      7.0121                 0.4238                 0.0004

                     19                     20                     21
                      A                      A                      A
 Frequencies --   1031.3294              1141.0627              1194.6576
 Red. masses --      2.7423                 1.4108                 1.3470
 Frc consts  --      1.7185                 1.0823                 1.1327
 IR Inten    --      0.5097                22.1656               165.0328

                     22                     23                     24
                      A                      A                      A
 Frequencies --   1209.6708              1229.6376              1302.7658
 Red. masses --      1.2451                 2.8681                 3.7679
 Frc consts  --      1.0734                 2.5550                 3.7678
 IR Inten    --     22.2138                 4.4377               126.8521

                     25                     26                     27
                      A                      A                      A
 Frequencies --   1336.1309              1377.6030              1472.0838
 Red. masses --      2.0752                 2.1429                 2.8252
 Frc consts  --      2.1828                 2.3961                 3.6071
 IR Inten    --      0.5171                35.5773                13.3954

                     28                     29                     30
                      A                      A                      A
 Frequencies --   1552.4864              1627.8341              1661.5117
 Red. masses --      2.5610                 5.8073                 5.6192
 Frc consts  --      3.6368                 9.0667                 9.1397
 IR Inten    --     92.9123                20.3173               123.5173

                     31                     32                     33
                      A                      A                      A
 Frequencies --   2331.9174              3177.2806              3208.5446
 Red. masses --     12.6781                 1.0899                 1.0890
 Frc consts  --     40.6192                 6.4829                 6.6054
 IR Inten    --     70.9390                13.3478                 2.0113

                     34                     35                     36
                      A                      A                      A
 Frequencies --   3214.8864              3223.7665              3747.6770
 Red. masses --      1.0937                 1.0954                 1.0664
 Frc consts  --      6.6598                 6.7075                 8.8247
 IR Inten    --      3.1070                 2.3864                75.4543

 - Thermochemistry -
 -------------------
 Temperature   298.150 Kelvin.  Pressure   1.00000 Atm.
 Atom     1 has atomic number  6 and mass  12.00000

 Molecular mass:   119.03711 amu.
 Principal axes and moments of inertia in atomic units:
                           1         2         3
     Eigenvalues --   322.519201832.607982155.12715
           X            0.99998   0.00662   0.00000
           Y           -0.00662   0.99998  -0.00001
           Z            0.00000   0.00001   1.00000
 This molecule is an asymmetric top.
 Rotational symmetry number  1.
 Rotational temperatures (Kelvin)      0.26855     0.04726     0.04019
 Rotational constants (GHZ):           5.59576     0.98479     0.83742
 Zero-point vibrational energy     270905.3 (Joules/Mol)
                                   64.74793 (Kcal/Mol)
 Warning -- explicit consideration of  10 degrees of freedom as
           vibrations may cause significant error
 Vibrational temperatures:    151.19   219.30   375.93   533.38   583.07
          (Kelvin)            599.60   600.34   690.22   799.82   801.11
                              950.68  1017.43  1020.27  1180.84  1223.24
                             1224.32  1373.94  1404.22  1483.85  1641.73
                             1718.85  1740.45  1769.17  1874.39  1922.39
                             1982.06  2118.00  2233.68  2342.09  2390.54
                             3355.11  4571.40  4616.38  4625.50  4638.28
                             5392.07

 Zero-point correction=                           0.103182 (Hartree/Particle)
 Thermal correction to Energy=                    0.110471
 Thermal correction to Enthalpy=                  0.111415
 Thermal correction to Gibbs Free Energy=         0.071420
 Sum of electronic and zero-point Energies=           -399.633131
 Sum of electronic and thermal Energies=              -399.625843
 Sum of electronic and thermal Enthalpies=            -399.624898
 Sum of electronic and thermal Free Energies=         -399.664894

                     E (Thermal)             CV                S
                      KCal/Mol        Cal/Mol-Kelvin    Cal/Mol-Kelvin
 Total                   69.322             27.896             84.177
 Electronic               0.000              0.000              0.000
 Translational            0.889              2.981             40.237
 Rotational               0.889              2.981             28.634
 Vibrational             67.544             21.934             15.306
 Vibration     1          0.605              1.945              3.358
 Vibration     2          0.619              1.900              2.642
 Vibration     3          0.669              1.744              1.653
 Vibration     4          0.743              1.532              1.077
 Vibration     5          0.770              1.459              0.944
 Vibration     6          0.780              1.434              0.903
 Vibration     7          0.780              1.433              0.901
 Vibration     8          0.836              1.295              0.711
 Vibration     9          0.911              1.127              0.532
 Vibration    10          0.912              1.125              0.530

 Optimization completed.
    -- Stationary point found.
 Normal termination of Gaussian 16 at Tue Sep 19 06:50:55 2023.
