 Gaussian 16, Revision B.01,
 Gaussian 16:  EM64L-G16RevB.01 20-Dec-2017

 ----------------------------------------------------------------
 # opt freq b3lyp/6-31+g(d) nosymm empiricaldispersion=gd3 volume
 ----------------------------------------------------------------

 -----------
 molecule_27
 -----------
 Symbolic Z-matrix:
 Charge =  0 Multiplicity = 1

 SCF Done:  E(RB3LYP) =  -346.789203758     A.U. after   13 cycles
 SCF Done:  E(RB3LYP) =  -346.790215175     A.U. after   11 cycles
 SCF Done:  E(RB3LYP) =  -346.790318066     A.U. after   10 cycles
 SCF Done:  E(RB3LYP) =  -346.790328124     A.U. after   10 cycles
 Optimization completed.
    -- Stationary point found.
 Normal termination of Gaussian 16 at Fri Sep 15 03:55:22 2023.

 ---------------------------------------------------------------------
 #N Geom=AllCheck Guess=TCheck SCRF=Check GenChk RB3LYP/6-31+G(d) Freq
 ---------------------------------------------------------------------

 Structure from the checkpoint file:  "MOLECULE_27.chk"
 -----------
 molecule_27
 -----------
 Charge =  0 Multiplicity = 1

                          Input orientation:
 ---------------------------------------------------------------------
 Center     Atomic      Atomic             Coordinates (Angstroms)
 Number     Number       Type             X           Y           Z
 ---------------------------------------------------------------------
      1          6           0       -0.285880   -0.709801    0.016291
      2          6           0        1.111211   -0.713734   -0.026691
      3          6           0        1.804826    0.500009   -0.050074
      4          6           0        1.111448    1.713920   -0.028381
      5          6           0       -0.285643    1.710322    0.014600
      6          6           0       -0.987355    0.500342    0.034266
      7          1           0       -0.826046   -1.653002    0.040802
      8          1           0        1.673825   -1.643209   -0.028624
      9          1           0        1.674240    2.643285   -0.031598
     10          1           0       -0.825624    2.653662    0.037798
     11          1           0       -2.073545    0.500474    0.070429
     12          8           0        3.187856    0.499858   -0.049732
     13          6           0        3.774059    0.499277   -1.353650
     14          1           0        3.479090    1.394450   -1.919105
     15          1           0        4.856734    0.499237   -1.206525
     16          1           0        3.478921   -0.396304   -1.918372
 ---------------------------------------------------------------------

 SCF Done:  E(RB3LYP) =  -346.790328124     A.U. after    1 cycles

 Alpha  occ. eigenvalues --  -19.17202 -10.24913 -10.24084 -10.20161 -10.20157
 Alpha  occ. eigenvalues --  -10.19765 -10.19733 -10.19733  -1.05539  -0.85688
 Alpha  occ. eigenvalues --   -0.75467  -0.75446  -0.69249  -0.61792  -0.59611
 Alpha  occ. eigenvalues --   -0.53277  -0.49185  -0.47850  -0.46284  -0.44812
 Alpha  occ. eigenvalues --   -0.43621  -0.42803  -0.38263  -0.36755  -0.35995
 Alpha  occ. eigenvalues --   -0.34409  -0.27919  -0.25975  -0.24772
 Alpha virt. eigenvalues --   -0.01704  -0.01231   0.00548   0.01893   0.02472
 Alpha virt. eigenvalues --    0.03511   0.04384   0.04632   0.05085   0.06599
 Alpha virt. eigenvalues --    0.07422   0.07750   0.09219   0.09281   0.11322

 Mulliken charges:
               1
     1  C   -0.232178
     2  C   -0.018824
     3  C   -0.066366
     4  C   -0.018844
     5  C   -0.232206
     6  C   -0.176704
     7  H    0.180755
     8  H    0.187178
     9  H    0.187172
    10  H    0.180754
    11  H    0.177505
    12  O   -0.403979
    13  C   -0.350877
    14  H    0.192600
    15  H    0.201407
    16  H    0.192608
 Sum of Mulliken charges =   0.00000

 Dipole moment (field-independent basis, Debye):
    X=             -0.3251    Y=             -0.0005    Z=             -1.3906  Tot=              1.4281
 Quadrupole moment (field-independent basis, Debye-Ang):
   XX=            -45.0319   YY=            -43.6703   ZZ=            -50.3292
   XY=             -0.1649   XZ=             -5.9700   YZ=             -0.7001

  Exact polarizability: 105.414  -0.005  89.560  -7.365  -0.024  55.357
 Approx polarizability: 154.302  -0.003 144.844  -4.407  -0.047  77.394

 ******    1 imaginary frequencies (negative Signs) ******

                      1                      2                      3
                      A                      A                      A
 Frequencies --    -47.7470               150.9134               181.3107
 Red. masses --      2.9387                 3.3439                 1.0557
 Frc consts  --      0.0039                 0.0449                 0.0204
 IR Inten    --      4.1697                 2.6972                 0.3936

                      4                      5                      6
                      A                      A                      A
 Frequencies --    324.3797               409.8088               423.3051
 Red. masses --      3.5668                 5.1693                 2.9831
 Frc consts  --      0.2211                 0.5115                 0.3149
 IR Inten    --      1.0686                 4.7561                 0.0430

                      7                      8                      9
                      A                      A                      A
 Frequencies --    504.8741               577.3305               628.2197
 Red. masses --      4.9198                 3.1575                 6.5066
 Frc consts  --      0.7389                 0.6201                 1.5130
 IR Inten    --     10.4806                10.5373                 0.0158

                     10                     11                     12
                      A                      A                      A
 Frequencies --    702.1092               779.0890               806.1836
 Red. masses --      1.9209                 2.0849                 3.6214
 Frc consts  --      0.5579                 0.7456                 1.3867
 IR Inten    --     37.0912                27.9551                27.2806

                     13                     14                     15
                      A                      A                      A
 Frequencies --    843.2966               922.2426               972.9180
 Red. masses --      1.2428                 1.4946                 1.3537
 Frc consts  --      0.5207                 0.7490                 0.7550
 IR Inten    --      0.0095                 3.8435                 0.0006

                     16                     17                     18
                      A                      A                      A
 Frequencies --    994.7716              1014.9339              1039.1906
 Red. masses --      1.2707                 6.2581                 4.2186
 Frc consts  --      0.7409                 3.7981                 2.6842
 IR Inten    --      0.1313                 3.4572                30.8645

                     19                     20                     21
                      A                      A                      A
 Frequencies --   1051.2390              1099.2871              1177.9696
 Red. masses --      2.5264                 1.5124                 1.2536
 Frc consts  --      1.6450                 1.0768                 1.0249
 IR Inten    --     55.3736                 7.9502                 2.0704

                     22                     23                     24
                      A                      A                      A
 Frequencies --   1192.4673              1195.1814              1206.7600
 Red. masses --      1.2170                 1.1147                 1.3965
 Frc consts  --      1.0196                 0.9381                 1.1982
 IR Inten    --     22.1649                 0.0176                 6.3291

                     25                     26                     27
                      A                      A                      A
 Frequencies --   1264.3077              1326.5946              1354.9223
 Red. masses --      3.5615                 1.9630                 2.7380
 Frc consts  --      3.3542                 2.0354                 2.9616
 IR Inten    --    169.7246                 0.5573                 0.0048

                     28                     29                     30
                      A                      A                      A
 Frequencies --   1486.7061              1489.5384              1507.9591
 Red. masses --      1.1807                 2.1456                 1.0602
 Frc consts  --      1.5376                 2.8049                 1.4205
 IR Inten    --      9.5244                 0.1761                 8.7789

                     31                     32                     33
                      A                      A                      A
 Frequencies --   1522.4951              1535.9787              1636.0987
 Red. masses --      1.0516                 2.1810                 5.8581
 Frc consts  --      1.4362                 3.0316                 9.2390
 IR Inten    --     13.3768                58.6535                 5.4977

                     34                     35                     36
                      A                      A                      A
 Frequencies --   1646.4721              3012.3427              3070.8010
 Red. masses --      5.4495                 1.0334                 1.1064
 Frc consts  --      8.7040                 5.5247                 6.1471
 IR Inten    --     41.3159                59.1741                38.6215

                     37                     38                     39
                      A                      A                      A
 Frequencies --   3144.1851              3177.5763              3185.9006
 Red. masses --      1.1002                 1.0853                 1.0887
 Frc consts  --      6.4081                 6.4564                 6.5106
 IR Inten    --     34.7641                 1.2046                 7.9758

                     40                     41                     42
                      A                      A                      A
 Frequencies --   3198.0079              3204.3761              3209.5688
 Red. masses --      1.0916                 1.0942                 1.0974
 Frc consts  --      6.5775                 6.6197                 6.6606
 IR Inten    --     26.2160                23.1120                 4.4307

 - Thermochemistry -
 -------------------
 Temperature   298.150 Kelvin.  Pressure   1.00000 Atm.
 Atom     1 has atomic number  6 and mass  12.00000

 Molecular mass:   108.05751 amu.
 Principal axes and moments of inertia in atomic units:
                           1         2         3
     Eigenvalues --   377.004021167.393601438.35299
           X            0.98054   0.00002   0.19633
           Y           -0.00016   1.00000   0.00072
           Z           -0.19633  -0.00073   0.98054
 This molecule is an asymmetric top.
 Rotational symmetry number  1.
 Rotational temperatures (Kelvin)      0.22974     0.07419     0.06022
 Rotational constants (GHZ):           4.78706     1.54596     1.25473
    1 imaginary frequencies ignored.
 Zero-point vibrational energy     347943.5 (Joules/Mol)
                                   83.16050 (Kcal/Mol)
 Warning -- explicit consideration of   7 degrees of freedom as
           vibrations may cause significant error
 Vibrational temperatures:    217.13   260.87   466.71   589.62   609.04
          (Kelvin)            726.40   830.65   903.87  1010.18  1120.94
                             1159.92  1213.32  1326.90  1399.81  1431.25
                             1460.26  1495.16  1512.50  1581.63  1694.84
                             1715.69  1719.60  1736.26  1819.06  1908.67
                             1949.43  2139.04  2143.11  2169.62  2190.53
                             2209.93  2353.98  2368.91  4334.09  4418.20
                             4523.78  4571.82  4583.80  4601.22  4610.38
                             4617.85

 Zero-point correction=                           0.132525 (Hartree/Particle)
 Thermal correction to Energy=                    0.138826
 Thermal correction to Enthalpy=                  0.139770
 Thermal correction to Gibbs Free Energy=         0.102064
 Sum of electronic and zero-point Energies=           -346.657803
 Sum of electronic and thermal Energies=              -346.651502
 Sum of electronic and thermal Enthalpies=            -346.650558
 Sum of electronic and thermal Free Energies=         -346.688264

                     E (Thermal)             CV                S
                      KCal/Mol        Cal/Mol-Kelvin    Cal/Mol-Kelvin
 Total                   87.114             24.532             79.358
 Electronic               0.000              0.000              0.000
 Translational            0.889              2.981             39.949
 Rotational               0.889              2.981             27.939
 Vibrational             85.337             18.570             11.469
 Vibration     1          0.618              1.902              2.661
 Vibration     2          0.630              1.865              2.315
 Vibration     3          0.709              1.627              1.288
 Vibration     4          0.774              1.449              0.927
 Vibration     5          0.785              1.420              0.881
 Vibration     6          0.860              1.239              0.646
 Vibration     7          0.934              1.080              0.490

 Optimization completed.
    -- Stationary point found.
 Normal termination of Gaussian 16 at Fri Sep 15 03:56:12 2023.
