 Gaussian 16, Revision B.01,
 Gaussian 16:  EM64L-G16RevB.01 20-Dec-2017

 ----------------------------------------------------------------
 # opt freq b3lyp/6-31+g(d) nosymm empiricaldispersion=gd3 volume
 ----------------------------------------------------------------

 -----------
 molecule_17
 -----------
 Symbolic Z-matrix:
 Charge =  0 Multiplicity = 1

 SCF Done:  E(RB3LYP) =  -231.176441987     A.U. after   12 cycles
 SCF Done:  E(RB3LYP) =  -231.177432911     A.U. after   12 cycles
 SCF Done:  E(RB3LYP) =  -231.175186467     A.U. after   13 cycles
 SCF Done:  E(RB3LYP) =  -231.177422450     A.U. after   11 cycles
 SCF Done:  E(RB3LYP) =  -231.177626303     A.U. after   10 cycles
 SCF Done:  E(RB3LYP) =  -231.177727662     A.U. after   11 cycles
 SCF Done:  E(RB3LYP) =  -231.177754291     A.U. after   11 cycles
 Optimization completed.
    -- Stationary point found.
 Normal termination of Gaussian 16 at Thu Sep 14 12:00:47 2023.

 ---------------------------------------------------------------------
 #N Geom=AllCheck Guess=TCheck SCRF=Check GenChk RB3LYP/6-31+G(d) Freq
 ---------------------------------------------------------------------

 Structure from the checkpoint file:  "MOLECULE_17.chk"
 -----------
 molecule_17
 -----------
 Charge =  0 Multiplicity = 1

                          Input orientation:
 ---------------------------------------------------------------------
 Center     Atomic      Atomic             Coordinates (Angstroms)
 Number     Number       Type             X           Y           Z
 ---------------------------------------------------------------------
      1          6           0       -0.300512    1.055576   -0.020662
      2          6           0        0.907975    1.051963   -0.014020
      3          1           0        1.975494    1.056156   -0.019718
      4          6           0       -1.762007    1.039965    0.003503
      5          1           0       -2.121569    1.501632    0.939737
      6          1           0       -2.121064   -0.004060   -0.003270
      7          8           0       -2.273996    1.743809   -1.120600
      8          6           0       -3.692087    1.757153   -1.142381
      9          1           0       -4.105270    2.256233   -0.250663
     10          1           0       -3.986233    2.315465   -2.034175
     11          1           0       -4.104964    0.736886   -1.201961
 ---------------------------------------------------------------------

 SCF Done:  E(RB3LYP) =  -231.177754291     A.U. after    1 cycles

 Alpha  occ. eigenvalues --  -19.17077 -10.26904 -10.24011 -10.20246 -10.19696
 Alpha  occ. eigenvalues --   -1.05012  -0.78814  -0.72228  -0.66446  -0.54675
 Alpha  occ. eigenvalues --   -0.50085  -0.49720  -0.49447  -0.42333  -0.41462
 Alpha  occ. eigenvalues --   -0.34127  -0.28798  -0.28779  -0.26875
 Alpha virt. eigenvalues --    0.00041   0.01206   0.02292   0.02301   0.03285
 Alpha virt. eigenvalues --    0.04402   0.04831   0.06368   0.07456   0.08402
 Alpha virt. eigenvalues --    0.10007   0.10059   0.11024   0.14879   0.15101

 Mulliken charges:
               1
     1  C    0.919215
     2  C   -0.753400
     3  H    0.248898
     4  C   -0.717456
     5  H    0.201857
     6  H    0.201855
     7  O   -0.320534
     8  C   -0.346028
     9  H    0.180312
    10  H    0.204971
    11  H    0.180309
 Sum of Mulliken charges =   0.00000

 Dipole moment (field-independent basis, Debye):
    X=             -1.2617    Y=             -0.5993    Z=              0.9570  Tot=              1.6932
 Quadrupole moment (field-independent basis, Debye-Ang):
   XX=            -18.9406   YY=            -33.6193   ZZ=            -33.0655
   XY=             -1.2178   XZ=             -0.1488   YZ=              1.7145

  Exact polarizability:  71.728  -2.371  38.006   3.807  -1.330  39.299
 Approx polarizability:  99.023  -0.742  49.291   1.219  -1.367  50.618

                      1                      2                      3
                      A                      A                      A
 Frequencies --     94.2806               172.5582               233.2492
 Red. masses --      2.7833                 3.6847                 1.1887
 Frc consts  --      0.0146                 0.0646                 0.0381
 IR Inten    --      3.9660                 3.7453                 4.7515

                      4                      5                      6
                      A                      A                      A
 Frequencies --    345.3485               380.8732               523.8010
 Red. masses --      3.3639                 3.3189                 6.8599
 Frc consts  --      0.2364                 0.2837                 1.1089
 IR Inten    --      3.9184                 0.0309                 1.1652

                      7                      8                      9
                      A                      A                      A
 Frequencies --    609.8449               669.0080               960.4699
 Red. masses --      1.2137                 1.2537                 4.0462
 Frc consts  --      0.2660                 0.3306                 2.1992
 IR Inten    --     68.1763                50.6022                32.6441

                     10                     11                     12
                      A                      A                      A
 Frequencies --    988.2110              1034.8156              1138.9866
 Red. masses --      4.1561                 1.6176                 6.3215
 Frc consts  --      2.3913                 1.0206                 4.8318
 IR Inten    --     15.6377                 4.6740               180.0953

                     13                     14                     15
                      A                      A                      A
 Frequencies --   1183.3564              1222.0865              1270.4708
 Red. masses --      1.2726                 1.5553                 1.0695
 Frc consts  --      1.0500                 1.3685                 1.0171
 IR Inten    --      3.6435                33.1545                 4.3300

                     16                     17                     18
                      A                      A                      A
 Frequencies --   1422.3735              1491.1025              1507.8920
 Red. masses --      1.3040                 1.1553                 1.0467
 Frc consts  --      1.5544                 1.5134                 1.4022
 IR Inten    --     66.4579                 0.0181                 7.9983

                     19                     20                     21
                      A                      A                      A
 Frequencies --   1513.3182              1528.2952              2235.3499
 Red. masses --      1.0744                 1.0673                 5.9704
 Frc consts  --      1.4497                 1.4687                17.5771
 IR Inten    --      4.6252                 4.0166                 0.5570

                     22                     23                     24
                      A                      A                      A
 Frequencies --   2966.9359              2986.1877              2988.8745
 Red. masses --      1.0529                 1.0377                 1.1050
 Frc consts  --      5.4605                 5.4521                 5.8163
 IR Inten    --     30.8937                85.3701                44.1612

                     25                     26                     27
                      A                      A                      A
 Frequencies --   3031.7966              3143.2729              3483.0539
 Red. masses --      1.1054                 1.0964                 1.1609
 Frc consts  --      5.9866                 6.3824                 8.2980
 IR Inten    --     59.9363                23.5485                55.2092

 - Thermochemistry -
 -------------------
 Temperature   298.150 Kelvin.  Pressure   1.00000 Atm.
 Atom     1 has atomic number  6 and mass  12.00000

 Molecular mass:    70.04186 amu.
 Principal axes and moments of inertia in atomic units:
                           1         2         3
     Eigenvalues --    62.28899 751.30359 790.66777
           X            0.94775  -0.31901  -0.00030
           Y           -0.16910  -0.50318   0.84748
           Z            0.27050   0.80315   0.53083
 This molecule is an asymmetric top.
 Rotational symmetry number  1.
 Rotational temperatures (Kelvin)      1.39052     0.11528     0.10955
 Rotational constants (GHZ):          28.97368     2.40215     2.28255
 Zero-point vibrational energy     234024.3 (Joules/Mol)
                                   55.93316 (Kcal/Mol)
 Warning -- explicit consideration of   7 degrees of freedom as
           vibrations may cause significant error
 Vibrational temperatures:    135.65   248.27   335.59   496.88   547.99
          (Kelvin)            753.63   877.43   962.55  1381.90  1421.82
                             1488.87  1638.75  1702.59  1758.31  1827.92
                             2046.48  2145.36  2169.52  2177.33  2198.88
                             3216.17  4268.76  4296.46  4300.32  4362.08
                             4522.47  5011.34

 Zero-point correction=                           0.089135 (Hartree/Particle)
 Thermal correction to Energy=                    0.095218
 Thermal correction to Enthalpy=                  0.096162
 Thermal correction to Gibbs Free Energy=         0.060183
 Sum of electronic and zero-point Energies=           -231.088619
 Sum of electronic and thermal Energies=              -231.082536
 Sum of electronic and thermal Enthalpies=            -231.081592
 Sum of electronic and thermal Free Energies=         -231.117571

                     E (Thermal)             CV                S
                      KCal/Mol        Cal/Mol-Kelvin    Cal/Mol-Kelvin
 Total                   59.750             20.140             75.724
 Electronic               0.000              0.000              0.000
 Translational            0.889              2.981             38.657
 Rotational               0.889              2.981             25.118
 Vibrational             57.973             14.178             11.950
 Vibration     1          0.603              1.953              3.569
 Vibration     2          0.626              1.876              2.407
 Vibration     3          0.654              1.790              1.854
 Vibration     4          0.724              1.585              1.187
 Vibration     5          0.751              1.511              1.036
 Vibration     6          0.879              1.197              0.601
 Vibration     7          0.969              1.011              0.433

 Optimization completed.
    -- Stationary point found.
 Normal termination of Gaussian 16 at Thu Sep 14 12:01:04 2023.
