 Gaussian 16, Revision B.01,
 Gaussian 16:  EM64L-G16RevB.01 20-Dec-2017

 ----------------------------------------------------------------
 # opt freq b3lyp/6-31+g(d) nosymm empiricaldispersion=gd3 volume
 ----------------------------------------------------------------

 -----------
 molecule_11
 -----------
 Symbolic Z-matrix:
 Charge =  0 Multiplicity = 1

 SCF Done:  E(RB3LYP) =  -447.610027172     A.U. after   14 cycles
 SCF Done:  E(RB3LYP) =  -447.611230766     A.U. after   12 cycles
 SCF Done:  E(RB3LYP) =  -447.611265037     A.U. after   11 cycles
 SCF Done:  E(RB3LYP) =  -447.611275663     A.U. after   11 cycles
 SCF Done:  E(RB3LYP) =  -447.611276740     A.U. after    9 cycles
 Optimization completed.
    -- Stationary point found.
 Normal termination of Gaussian 16 at Fri Sep 15 03:41:02 2023.

 ---------------------------------------------------------------------
 #N Geom=AllCheck Guess=TCheck SCRF=Check GenChk RB3LYP/6-31+G(d) Freq
 ---------------------------------------------------------------------

 Structure from the checkpoint file:  "MOLECULE_22.chk"
 -----------
 molecule_11
 -----------
 Charge =  0 Multiplicity = 1

                          Input orientation:
 ---------------------------------------------------------------------
 Center     Atomic      Atomic             Coordinates (Angstroms)
 Number     Number       Type             X           Y           Z
 ---------------------------------------------------------------------
      1          6           0       -0.184203   -0.690616    0.293827
      2          6           0        1.209398   -0.642499    0.282745
      3          6           0        1.917193    0.559180    0.071137
      4          6           0        1.174327    1.751715   -0.136139
      5          6           0       -0.227160    1.688067   -0.122325
      6          6           0       -0.906344    0.486375    0.089273
      7          1           0       -0.699450   -1.633479    0.459791
      8          1           0        1.773822   -1.556905    0.441686
      9          1           0       -0.798130    2.600669   -0.280969
     10          5           0        3.481248    0.474638    0.083150
     11          8           0        4.247532    1.604422   -0.114851
     12          1           0        5.205741    1.470190   -0.092699
     13          8           0        4.046253   -0.767581    0.299081
     14          1           0        5.012478   -0.804025    0.303909
     15          1           0       -1.993945    0.472820    0.093729
     16          6           0        1.832970    3.094147   -0.372334
     17          1           0        2.477623    3.378246    0.466180
     18          1           0        2.475451    3.075822   -1.259037
     19          1           0        1.079027    3.876860   -0.508582
 ---------------------------------------------------------------------

 SCF Done:  E(RB3LYP) =  -447.611276740     A.U. after    1 cycles

 Alpha  occ. eigenvalues --  -19.17892 -19.17686 -10.20050 -10.19253 -10.18721
 Alpha  occ. eigenvalues --  -10.18585 -10.18527 -10.17297 -10.17226  -6.79908
 Alpha  occ. eigenvalues --   -1.05257  -1.01745  -0.84930  -0.76540  -0.74046
 Alpha  occ. eigenvalues --   -0.67793  -0.61175  -0.59040  -0.56345  -0.55199
 Alpha  occ. eigenvalues --   -0.49710  -0.45179  -0.44453  -0.44069  -0.41582
 Alpha  occ. eigenvalues --   -0.40363  -0.39315  -0.39186  -0.37717  -0.35047
 Alpha  occ. eigenvalues --   -0.34930  -0.33464  -0.33317  -0.31946  -0.24923
 Alpha  occ. eigenvalues --   -0.23958
 Alpha virt. eigenvalues --   -0.03202  -0.03059  -0.00202   0.01172   0.01412
 Alpha virt. eigenvalues --    0.03085   0.03414   0.03648   0.05148   0.06371
 Alpha virt. eigenvalues --    0.06759   0.07382   0.08062   0.08912   0.10113

 Mulliken charges:
               1
     1  C   -0.217382
     2  C    0.175855
     3  C   -0.902076
     4  C    1.121676
     5  C   -0.835546
     6  C   -0.054318
     7  H    0.175049
     8  H    0.201491
     9  H    0.171883
    10  B    0.846939
    11  O   -0.821316
    12  H    0.501101
    13  O   -0.799498
    14  H    0.497222
    15  H    0.176437
    16  C   -0.892411
    17  H    0.231469
    18  H    0.231443
    19  H    0.191982
 Sum of Mulliken charges =   0.00000

 Dipole moment (field-independent basis, Debye):
    X=              2.5174    Y=              0.0590    Z=             -0.0142  Tot=              2.5181
 Quadrupole moment (field-independent basis, Debye-Ang):
   XX=            -31.6080   YY=            -59.6191   ZZ=            -62.9711
   XY=              0.2764   XZ=              0.3330   YZ=             -0.5962

  Exact polarizability: 128.858   2.957 111.728  -0.642  -8.934  62.250
 Approx polarizability: 188.242   3.081 170.639  -0.722 -14.204  91.947

                      1                      2                      3
                      A                      A                      A
 Frequencies --     38.3173               123.2353               193.4159
 Red. masses --      6.5866                 3.7207                 1.1569
 Frc consts  --      0.0057                 0.0333                 0.0255
 IR Inten    --      0.1166                 3.0495                 1.8749

                      4                      5                      6
                      A                      A                      A
 Frequencies --    211.5911               226.7554               332.8671
 Red. masses --      4.9756                 2.3788                 4.1484
 Frc consts  --      0.1312                 0.0721                 0.2708
 IR Inten    --      3.4130                 8.4926                 3.3299

                      7                      8                      9
                      A                      A                      A
 Frequencies --    344.7360               384.9352               424.0233
 Red. masses --      6.0165                 1.0742                 2.6237
 Frc consts  --      0.4213                 0.0938                 0.2779
 IR Inten    --      3.8510                 6.6250                20.4863

                     10                     11                     12
                      A                      A                      A
 Frequencies --    465.0979               491.8618               538.6915
 Red. masses --      3.7794                 2.4927                 4.4921
 Frc consts  --      0.4817                 0.3553                 0.7680
 IR Inten    --      4.6498                 4.7539                21.7362

                     13                     14                     15
                      A                      A                      A
 Frequencies --    553.3503               586.7231               663.0012
 Red. masses --      1.4060                 4.2760                 5.6115
 Frc consts  --      0.2536                 0.8673                 1.4533
 IR Inten    --    190.0742                27.9144                73.5250

                     16                     17                     18
                      A                      A                      A
 Frequencies --    704.0715               751.1062               783.4786
 Red. masses --      4.9858                 1.7598                 1.9580
 Frc consts  --      1.4562                 0.5850                 0.7081
 IR Inten    --      1.8847                36.0705                16.4625

                     19                     20                     21
                      A                      A                      A
 Frequencies --    820.3510               890.3377               922.3596
 Red. masses --      4.9236                 1.3040                 1.1072
 Frc consts  --      1.9523                 0.6090                 0.5550
 IR Inten    --      0.9916                 0.0113               156.9277

                     22                     23                     24
                      A                      A                      A
 Frequencies --    974.4604               998.1921              1005.4810
 Red. masses --      1.3666                 2.8180                 1.3138
 Frc consts  --      0.7646                 1.6543                 0.7826
 IR Inten    --      0.8289               177.0323                 0.0316

                     25                     26                     27
                      A                      A                      A
 Frequencies --   1025.6394              1073.7117              1076.1843
 Red. masses --      1.5713                 1.5526                 2.5368
 Frc consts  --      0.9739                 1.0546                 1.7311
 IR Inten    --      0.8710                 2.5695                 3.6295

                     28                     29                     30
                      A                      A                      A
 Frequencies --   1101.3608              1160.3692              1205.0580
 Red. masses --      2.4134                 1.6387                 1.1593
 Frc consts  --      1.7248                 1.3000                 0.9919
 IR Inten    --     10.6306                 3.6451                 1.1642

                     31                     32                     33
                      A                      A                      A
 Frequencies --   1231.3141              1308.7080              1327.3394
 Red. masses --      2.3985                 2.0435                 3.3773
 Frc consts  --      2.1426                 2.0621                 3.5057
 IR Inten    --      0.5754                35.8890                62.7656

                     34                     35                     36
                      A                      A                      A
 Frequencies --   1362.8171              1371.3154              1442.2127
 Red. masses --      6.7761                 3.0554                 1.2245
 Frc consts  --      7.4148                 3.3852                 1.5006
 IR Inten    --    255.7326               259.4905                 2.5903

                     37                     38                     39
                      A                      A                      A
 Frequencies --   1480.4716              1508.4144              1513.4980
 Red. masses --      2.0796                 1.0436                 1.2675
 Frc consts  --      2.6855                 1.3991                 1.7106
 IR Inten    --     49.9571                 7.8688                37.1213

                     40                     41                     42
                      A                      A                      A
 Frequencies --   1530.8820              1615.1899              1650.4766
 Red. masses --      1.9298                 5.2333                 5.1891
 Frc consts  --      2.6647                 8.0440                 8.3284
 IR Inten    --      6.6319                11.6455                32.7882

                     43                     44                     45
                      A                      A                      A
 Frequencies --   3051.3155              3112.3469              3117.6607
 Red. masses --      1.0358                 1.0999                 1.1033
 Frc consts  --      5.6818                 6.2775                 6.3185
 IR Inten    --     30.6307                13.2122                22.7484

                     46                     47                     48
                      A                      A                      A
 Frequencies --   3166.5079              3179.7192              3193.4312
 Red. masses --      1.0862                 1.0892                 1.0936
 Frc consts  --      6.4168                 6.4882                 6.5707
 IR Inten    --      6.9293                19.5255                28.6107

                     49                     50                     51
                      A                      A                      A
 Frequencies --   3206.9056              3782.8934              3797.0868
 Red. masses --      1.0947                 1.0665                 1.0662
 Frc consts  --      6.6329                 8.9925                 9.0574
 IR Inten    --     18.3002                23.5393                44.8005

 - Thermochemistry -
 -------------------
 Temperature   298.150 Kelvin.  Pressure   1.00000 Atm.
 Atom     1 has atomic number  6 and mass  12.00000

 Molecular mass:   136.06956 amu.
 Principal axes and moments of inertia in atomic units:
                           1         2         3
     Eigenvalues --   841.177981620.712562450.84922
           X            0.99995   0.00992   0.00175
           Y           -0.01007   0.98500   0.17228
           Z           -0.00001  -0.17228   0.98505
 This molecule is an asymmetric top.
 Rotational symmetry number  1.
 Warning -- assumption of classical behavior for rotation
           may cause significant error
 Rotational temperatures (Kelvin)      0.10297     0.05344     0.03534
 Rotational constants (GHZ):           2.14549     1.11355     0.73637
 Zero-point vibrational energy     400876.2 (Joules/Mol)
                                   95.81172 (Kcal/Mol)
 Warning -- explicit consideration of  14 degrees of freedom as
           vibrations may cause significant error
 Vibrational temperatures:     55.13   177.31   278.28   304.43   326.25
          (Kelvin)            478.92   496.00   553.84   610.07   669.17
                              707.68   775.06   796.15   844.16   953.91
                             1013.00  1080.67  1127.25  1180.30  1281.00
                             1327.07  1402.03  1436.18  1446.66  1475.67
                             1544.83  1548.39  1584.61  1669.51  1733.81
                             1771.59  1882.94  1909.75  1960.79  1973.02
                             2075.02  2130.07  2170.27  2177.59  2202.60
                             2323.90  2374.67  4390.16  4477.97  4485.62
                             4555.90  4574.91  4594.64  4614.02  5442.74
                             5463.16

 Zero-point correction=                           0.152686 (Hartree/Particle)
 Thermal correction to Energy=                    0.162037
 Thermal correction to Enthalpy=                  0.162981
 Thermal correction to Gibbs Free Energy=         0.118057
 Sum of electronic and zero-point Energies=           -447.458591
 Sum of electronic and thermal Energies=              -447.449240
 Sum of electronic and thermal Enthalpies=            -447.448296
 Sum of electronic and thermal Free Energies=         -447.493220

                     E (Thermal)             CV                S
                      KCal/Mol        Cal/Mol-Kelvin    Cal/Mol-Kelvin
 Total                  101.679             36.153             94.550
 Electronic               0.000              0.000              0.000
 Translational            0.889              2.981             40.636
 Rotational               0.889              2.981             29.592
 Vibrational             99.902             30.192             24.322
 Vibration     1          0.594              1.982              5.344
 Vibration     2          0.610              1.930              3.049
 Vibration     3          0.635              1.849              2.195
 Vibration     4          0.643              1.823              2.030
 Vibration     5          0.650              1.800              1.904
 Vibration     6          0.715              1.610              1.246
 Vibration     7          0.723              1.586              1.190
 Vibration     8          0.754              1.502              1.020
 Vibration     9          0.786              1.418              0.878
 Vibration    10          0.823              1.327              0.751
 Vibration    11          0.848              1.268              0.679
 Vibration    12          0.894              1.164              0.568
 Vibration    13          0.909              1.132              0.537
 Vibration    14          0.944              1.060              0.473

 Optimization completed.
    -- Stationary point found.
 Normal termination of Gaussian 16 at Fri Sep 15 03:42:34 2023.
