 Gaussian 16, Revision B.01,
 Gaussian 16:  EM64L-G16RevB.01 20-Dec-2017

 ----------------------------------------------------------------
 # opt freq b3lyp/6-31+g(d) nosymm empiricaldispersion=gd3 volume
 ----------------------------------------------------------------

 -----------
 molecule_10
 -----------
 Symbolic Z-matrix:
 Charge =  0 Multiplicity = 1

 SCF Done:  E(RB3LYP) =  -1063.24647149     A.U. after   13 cycles
 SCF Done:  E(RB3LYP) =  -1063.24954915     A.U. after   11 cycles
 SCF Done:  E(RB3LYP) =  -1063.24985981     A.U. after   11 cycles
 SCF Done:  E(RB3LYP) =  -1063.24987985     A.U. after    9 cycles
 SCF Done:  E(RB3LYP) =  -1063.24988364     A.U. after    9 cycles
 SCF Done:  E(RB3LYP) =  -1063.24991722     A.U. after   10 cycles
 SCF Done:  E(RB3LYP) =  -1063.20275948     A.U. after   12 cycles
 SCF Done:  E(RB3LYP) =  -1063.25122274     A.U. after   12 cycles
 SCF Done:  E(RB3LYP) =  -1063.25636164     A.U. after   12 cycles
 SCF Done:  E(RB3LYP) =  -1063.23567584     A.U. after   13 cycles
 SCF Done:  E(RB3LYP) =  -1063.26484045     A.U. after   13 cycles
 SCF Done:  E(RB3LYP) =  -1063.26575196     A.U. after   12 cycles
 SCF Done:  E(RB3LYP) =  -1063.26611434     A.U. after   12 cycles
 SCF Done:  E(RB3LYP) =  -1063.26617615     A.U. after   11 cycles
 SCF Done:  E(RB3LYP) =  -1063.26619152     A.U. after   10 cycles
 SCF Done:  E(RB3LYP) =  -1063.26620289     A.U. after   10 cycles
 SCF Done:  E(RB3LYP) =  -1063.26620592     A.U. after    9 cycles
 SCF Done:  E(RB3LYP) =  -1063.26620664     A.U. after    9 cycles
 SCF Done:  E(RB3LYP) =  -1063.26620669     A.U. after    8 cycles
 Optimization completed.
    -- Stationary point found.
 Normal termination of Gaussian 16 at Thu Sep 14 11:20:58 2023.

 ---------------------------------------------------------------------
 #N Geom=AllCheck Guess=TCheck SCRF=Check GenChk RB3LYP/6-31+G(d) Freq
 ---------------------------------------------------------------------

 Structure from the checkpoint file:  "MOLECULE_10.chk"
 -----------
 molecule_10
 -----------
 Charge =  0 Multiplicity = 1

                          Input orientation:
 ---------------------------------------------------------------------
 Center     Atomic      Atomic             Coordinates (Angstroms)
 Number     Number       Type             X           Y           Z
 ---------------------------------------------------------------------
      1          6           0       -0.889636   -0.589402    0.350368
      2          6           0        0.482907   -0.552736    0.601268
      3          6           0        1.159968    0.660530    0.464356
      4          6           0        0.492207    1.826100    0.083942
      5          6           0       -0.880440    1.765507   -0.161643
      6          6           0       -1.598293    0.562844   -0.034403
      7          1           0       -1.423950   -1.530031    0.454896
      8          1           0        1.023050   -1.446333    0.898045
      9          1           0        1.039488    2.758177   -0.016343
     10          1           0       -1.407583    2.668573   -0.457927
     11          6           0       -5.191706    1.647317   -0.931996
     12          6           0       -5.200837   -0.768999   -0.411219
     13          6           0       -5.927077    0.558113   -0.132451
     14          1           0       -5.575340    2.641914   -0.678556
     15          1           0       -5.346024   -1.069388   -1.458371
     16         17           0        2.892113    0.721862    0.777435
     17          5           0       -3.135961    0.509307   -0.309002
     18          1           0       -5.337209    1.491423   -2.010115
     19          1           0       -5.591887   -1.568397    0.228044
     20          6           0       -7.378801    0.457874   -0.623414
     21          1           0       -7.918867   -0.328694   -0.082136
     22          1           0       -7.912182    1.401552   -0.455121
     23          1           0       -7.430322    0.227111   -1.694888
     24          6           0       -5.900462    0.882357    1.372876
     25          1           0       -6.407514    1.834612    1.570104
     26          1           0       -6.414147    0.099534    1.943945
     27          1           0       -4.879003    0.961388    1.758041
     28          8           0       -3.783720    1.663871   -0.668588
     29          8           0       -3.792791   -0.685925   -0.160858
 ---------------------------------------------------------------------

 SCF Done:  E(RB3LYP) =  -1063.26620669     A.U. after    1 cycles

 Alpha  occ. eigenvalues -- -101.55081 -19.17006 -19.17006 -10.25636 -10.25228
 Alpha  occ. eigenvalues --  -10.25228 -10.22130 -10.20332 -10.20332 -10.20053
 Alpha  occ. eigenvalues --  -10.20052 -10.20030 -10.19176 -10.17932  -9.46600
 Alpha  occ. eigenvalues --   -7.22996  -7.22042  -7.22007  -6.79000  -1.05967
 Alpha  occ. eigenvalues --   -1.02001  -0.88906  -0.83934  -0.83117  -0.75626
 Alpha  occ. eigenvalues --   -0.73451  -0.70747  -0.69990  -0.69967  -0.61640
 Alpha  occ. eigenvalues --   -0.60506  -0.58712  -0.52912  -0.51808  -0.51273
 Alpha  occ. eigenvalues --   -0.48636  -0.47356  -0.46784  -0.45973  -0.45849
 Alpha  occ. eigenvalues --   -0.43185  -0.43145  -0.42193  -0.41359  -0.40357
 Alpha  occ. eigenvalues --   -0.39623  -0.39156  -0.38987  -0.37222  -0.35559
 Alpha  occ. eigenvalues --   -0.35190  -0.33993  -0.33000  -0.32181  -0.31271
 Alpha  occ. eigenvalues --   -0.30191  -0.29874  -0.26147  -0.24583
 Alpha virt. eigenvalues --   -0.03850  -0.01713  -0.01125   0.00457   0.01429
 Alpha virt. eigenvalues --    0.01430   0.01699   0.02325   0.03208   0.03844
 Alpha virt. eigenvalues --    0.04170   0.04584   0.05043   0.05609   0.05645

 Mulliken charges:
               1
     1  C    0.053595
     2  C   -0.379792
     3  C    0.264143
     4  C   -0.380211
     5  C    0.053745
     6  C   -0.809686
     7  H    0.202210
     8  H    0.196849
     9  H    0.196850
    10  H    0.202226
    11  C   -0.352697
    12  C   -0.352762
    13  C   -0.073336
    14  H    0.201991
    15  H    0.203368
    16  Cl   0.181870
    17  B    1.037462
    18  H    0.203360
    19  H    0.201990
    20  C   -0.709476
    21  H    0.220908
    22  H    0.220920
    23  H    0.217629
    24  C   -0.542626
    25  H    0.214082
    26  H    0.214091
    27  H    0.231151
    28  O   -0.458941
    29  O   -0.458911
 Sum of Mulliken charges =   0.00000

 Dipole moment (field-independent basis, Debye):
    X=             -4.8335    Y=             -0.1165    Z=             -0.6261  Tot=              4.8753
 Quadrupole moment (field-independent basis, Debye-Ang):
   XX=            -71.3418   YY=            -93.7040   ZZ=            -98.1181
   XY=             -2.3594   XZ=              2.0999   YZ=             -1.4036

  Exact polarizability: 226.172   3.522 143.290  17.673  -7.274 111.730
 Approx polarizability: 280.938   4.779 233.328  22.808 -15.784 164.555

                      1                      2                      3
                      A                      A                      A
 Frequencies --     37.7025                47.2581                82.4923
 Red. masses --      5.5989                 3.5122                 5.5196
 Frc consts  --      0.0047                 0.0046                 0.0221
 IR Inten    --      0.3868                 0.0035                 0.3190

                      4                      5                      6
                      A                      A                      A
 Frequencies --    100.5058               145.5120               209.0571
 Red. masses --      6.1273                 3.6786                 5.6031
 Frc consts  --      0.0365                 0.0459                 0.1443
 IR Inten    --      0.2794                 0.3014                 2.3831

                      7                      8                      9
                      A                      A                      A
 Frequencies --    211.7958               227.0201               234.4078
 Red. masses --      1.1364                 4.9539                 1.4911
 Frc consts  --      0.0300                 0.1504                 0.0483
 IR Inten    --      0.0381                 0.9388                 0.0215

                     10                     11                     12
                      A                      A                      A
 Frequencies --    270.2306               290.0827               297.7245
 Red. masses --      2.1592                 5.7858                 2.3042
 Frc consts  --      0.0929                 0.2869                 0.1203
 IR Inten    --      0.6796                 3.5392                 1.8337

                     13                     14                     15
                      A                      A                      A
 Frequencies --    359.1605               378.3952               418.8114
 Red. masses --      2.5337                 3.7163                 2.9211
 Frc consts  --      0.1926                 0.3135                 0.3019
 IR Inten    --      1.1929                 0.6639                 0.0033

                     16                     17                     18
                      A                      A                      A
 Frequencies --    425.8667               433.1695               462.8582
 Red. masses --      2.1022                 2.9768                 5.9966
 Frc consts  --      0.2246                 0.3291                 0.7569
 IR Inten    --      0.0653                 0.6847                13.3376

                     19                     20                     21
                      A                      A                      A
 Frequencies --    489.0837               509.6582               579.0481
 Red. masses --      3.4749                 5.0737                 4.5271
 Frc consts  --      0.4897                 0.7765                 0.8943
 IR Inten    --      4.1999                 4.5406                 6.8124

                     22                     23                     24
                      A                      A                      A
 Frequencies --    642.7992               656.0938               695.2862
 Red. masses --      7.1120                 5.2522                 6.9155
 Frc consts  --      1.7314                 1.3321                 1.9697
 IR Inten    --      0.8906                46.3250                 4.4200

                     25                     26                     27
                      A                      A                      A
 Frequencies --    744.2820               752.0353               820.4296
 Red. masses --      4.2111                 6.8195                 3.6724
 Frc consts  --      1.3744                 2.2724                 1.4564
 IR Inten    --     13.9336                27.2815                 8.8972

                     28                     29                     30
                      A                      A                      A
 Frequencies --    844.1940               848.9566               925.4683
 Red. masses --      1.5277                 1.2474                 1.9010
 Frc consts  --      0.6415                 0.5297                 0.9593
 IR Inten    --     32.1011                 0.0017                 1.9833

                     31                     32                     33
                      A                      A                      A
 Frequencies --    938.7103               965.7467               971.0346
 Red. masses --      2.2197                 1.3458                 1.5653
 Frc consts  --      1.1524                 0.7396                 0.8696
 IR Inten    --      3.7362                 0.1265                 0.8428

                     34                     35                     36
                      A                      A                      A
 Frequencies --    982.7437               983.1139               994.1757
 Red. masses --      1.3311                 3.7692                 1.3618
 Frc consts  --      0.7574                 2.1464                 0.7930
 IR Inten    --      0.0072                 0.3414                 0.0006

                     37                     38                     39
                      A                      A                      A
 Frequencies --   1023.4095              1033.9704              1060.4591
 Red. masses --      4.1606                 3.9059                 1.9384
 Frc consts  --      2.5675                 2.4603                 1.2843
 IR Inten    --      2.4320                74.7686                 0.5977

                     40                     41                     42
                      A                      A                      A
 Frequencies --   1065.8952              1103.9394              1140.8376
 Red. masses --      1.5775                 2.8980                 1.4594
 Frc consts  --      1.0560                 2.0808                 1.1191
 IR Inten    --      0.0989                52.9532                 7.5672

                     43                     44                     45
                      A                      A                      A
 Frequencies --   1167.5822              1216.5357              1223.5538
 Red. masses --      4.1580                 2.3706                 1.1516
 Frc consts  --      3.3397                 2.0670                 1.0158
 IR Inten    --    250.6342                 0.9261                 6.5179

                     46                     47                     48
                      A                      A                      A
 Frequencies --   1247.1237              1251.5771              1277.9243
 Red. masses --      2.0266                 1.4876                 2.4396
 Frc consts  --      1.8571                 1.3730                 2.3473
 IR Inten    --      1.3717                 9.7156               106.7825

                     49                     50                     51
                      A                      A                      A
 Frequencies --   1319.9495              1330.5798              1339.0179
 Red. masses --      1.9612                 4.9866                 1.2822
 Frc consts  --      2.0132                 5.2016                 1.3545
 IR Inten    --     12.6288                 7.1575                 1.6984

                     52                     53                     54
                      A                      A                      A
 Frequencies --   1341.0741              1349.2992              1427.0881
 Red. masses --      3.7080                 1.6463                 2.3535
 Frc consts  --      3.9292                 1.7660                 2.8240
 IR Inten    --    787.6140                93.2407                 1.7525

                     55                     56                     57
                      A                      A                      A
 Frequencies --   1428.7513              1431.4581              1460.9443
 Red. masses --      1.3283                 1.2418                 1.2453
 Frc consts  --      1.5976                 1.4991                 1.5660
 IR Inten    --      4.0219                 7.1903                 9.8816

                     58                     59                     60
                      A                      A                      A
 Frequencies --   1461.3607              1512.3110              1512.6057
 Red. masses --      1.9747                 1.0450                 1.0534
 Frc consts  --      2.4847                 1.4081                 1.4200
 IR Inten    --     83.0007                 0.0488                 2.0784

                     61                     62                     63
                      A                      A                      A
 Frequencies --   1530.2423              1530.7905              1534.0635
 Red. masses --      1.0573                 1.1143                 2.2734
 Frc consts  --      1.4587                 1.5385                 3.1521
 IR Inten    --      6.4090                 6.4895                 6.9383

                     64                     65                     66
                      A                      A                      A
 Frequencies --   1540.0505              1545.4500              1606.8696
 Red. masses --      1.0715                 1.0996                 6.5192
 Frc consts  --      1.4973                 1.5473                 9.9176
 IR Inten    --     30.5398                 4.2302                 9.2654

                     67                     68                     69
                      A                      A                      A
 Frequencies --   1641.4230              3026.2512              3030.3452
 Red. masses --      5.2833                 1.0636                 1.0515
 Frc consts  --      8.3867                 5.7392                 5.6890
 IR Inten    --    118.4307                29.1926                23.6939

                     70                     71                     72
                      A                      A                      A
 Frequencies --   3036.9834              3045.5497              3084.7936
 Red. masses --      1.0438                 1.0400                 1.1015
 Frc consts  --      5.6724                 5.6836                 6.1755
 IR Inten    --    104.6758                30.2091                23.4919

                     73                     74                     75
                      A                      A                      A
 Frequencies --   3087.8050              3101.4968              3101.8815
 Red. masses --      1.1026                 1.1024                 1.1021
 Frc consts  --      6.1938                 6.2480                 6.2477
 IR Inten    --     21.7296                 1.9992                48.3851

                     76                     77                     78
                      A                      A                      A
 Frequencies --   3107.1595              3124.6218              3194.2623
 Red. masses --      1.1017                 1.1002                 1.0885
 Frc consts  --      6.2669                 6.3289                 6.5439
 IR Inten    --     57.5570                28.1098                 3.0986

                     79                     80                     81
                      A                      A                      A
 Frequencies --   3194.7330              3214.1444              3215.6843
 Red. masses --      1.0881                 1.0939                 1.0947
 Frc consts  --      6.5430                 6.6580                 6.6698
 IR Inten    --      4.2408                12.1427                 1.9156

 - Thermochemistry -
 -------------------
 Temperature   298.150 Kelvin.  Pressure   1.00000 Atm.
 Atom     1 has atomic number  6 and mass  12.00000

 Molecular mass:   224.07754 amu.
 Principal axes and moments of inertia in atomic units:
                           1         2         3
     Eigenvalues --   908.644258979.867299413.15937
           X            0.99443   0.00375  -0.10531
           Y            0.01870   0.97723   0.21136
           Z            0.10371  -0.21215   0.97172
 This molecule is an asymmetric top.
 Rotational symmetry number  1.
 Warning -- assumption of classical behavior for rotation
           may cause significant error
 Rotational temperatures (Kelvin)      0.09532     0.00965     0.00920
 Rotational constants (GHZ):           1.98619     0.20098     0.19173
 Zero-point vibrational energy     623235.0 (Joules/Mol)
                                  148.95675 (Kcal/Mol)
 Warning -- explicit consideration of  21 degrees of freedom as
           vibrations may cause significant error
 Vibrational temperatures:     54.25    67.99   118.69   144.61   209.36
          (Kelvin)            300.79   304.73   326.63   337.26   388.80
                              417.36   428.36   516.75   544.43   602.58
                              612.73   623.23   665.95   703.68   733.28
                              833.12   924.84   943.97  1000.36  1070.86
                             1082.01  1180.42  1214.61  1221.46  1331.54
                             1350.59  1389.49  1397.10  1413.95  1414.48
                             1430.40  1472.46  1487.65  1525.76  1533.59
                             1588.32  1641.41  1679.89  1750.32  1760.42
                             1794.33  1800.74  1838.65  1899.11  1914.41
                             1926.55  1929.51  1941.34  2053.26  2055.65
                             2059.55  2101.97  2102.57  2175.88  2176.30
                             2201.68  2202.47  2207.18  2215.79  2223.56
                             2311.93  2361.64  4354.10  4359.99  4369.54
                             4381.87  4438.33  4442.66  4462.36  4462.92
                             4470.51  4495.63  4595.83  4596.51  4624.44
                             4626.65

 Zero-point correction=                           0.237378 (Hartree/Particle)
 Thermal correction to Energy=                    0.251357
 Thermal correction to Enthalpy=                  0.252302
 Thermal correction to Gibbs Free Energy=         0.195951
 Sum of electronic and zero-point Energies=          -1063.028829
 Sum of electronic and thermal Energies=             -1063.014849
 Sum of electronic and thermal Enthalpies=           -1063.013905
 Sum of electronic and thermal Free Energies=        -1063.070256

                     E (Thermal)             CV                S
                      KCal/Mol        Cal/Mol-Kelvin    Cal/Mol-Kelvin
 Total                  157.729             53.818            118.600
 Electronic               0.000              0.000              0.000
 Translational            0.889              2.981             42.123
 Rotational               0.889              2.981             32.707
 Vibrational            155.952             47.857             43.770
 Vibration     1          0.594              1.982              5.376
 Vibration     2          0.595              1.979              4.929
 Vibration     3          0.600              1.961              3.831
 Vibration     4          0.604              1.949              3.444
 Vibration     5          0.617              1.908              2.730
 Vibration     6          0.642              1.827              2.052
 Vibration     7          0.643              1.823              2.028
 Vibration     8          0.651              1.800              1.902
 Vibration     9          0.654              1.788              1.845
 Vibration    10          0.674              1.728              1.595
 Vibration    11          0.686              1.692              1.473
 Vibration    12          0.691              1.678              1.430
 Vibration    13          0.734              1.556              1.126
 Vibration    14          0.749              1.516              1.046
 Vibration    15          0.782              1.429              0.896
 Vibration    16          0.788              1.414              0.872
 Vibration    17          0.794              1.398              0.848
 Vibration    18          0.820              1.332              0.758
 Vibration    19          0.845              1.274              0.686
 Vibration    20          0.865              1.229              0.634
 Vibration    21          0.936              1.077              0.487

 Optimization completed.
    -- Stationary point found.
 Normal termination of Gaussian 16 at Thu Sep 14 11:26:03 2023.
