 Gaussian 16, Revision B.01,
 Gaussian 16:  EM64L-G16RevB.01 20-Dec-2017

 ----------------------------------------------------------------------
 # opt freq b3lyp/6-31+g(d) geom=connectivity empiricaldispersion=gd3 v
 olume
 ----------------------------------------------------------------------

 -------------------
 Title Card Required
 -------------------
 Symbolic Z-matrix:
 Charge =  0 Multiplicity = 1

 SCF Done:  E(RB3LYP) =  -521.625851099     A.U. after   15 cycles
 Optimization completed.
    -- Stationary point found.
 Normal termination of Gaussian 16 at Sun Sep 17 09:05:31 2023.

 ---------------------------------------------------------------------
 #N Geom=AllCheck Guess=TCheck SCRF=Check GenChk RB3LYP/6-31+G(d) Freq
 ---------------------------------------------------------------------

 Structure from the checkpoint file:  "MOLECULE_4.chk"
 -------------------
 Title Card Required
 -------------------
 Charge =  0 Multiplicity = 1

                         Standard orientation:
 ---------------------------------------------------------------------
 Center     Atomic      Atomic             Coordinates (Angstroms)
 Number     Number       Type             X           Y           Z
 ---------------------------------------------------------------------
      1          6           0       -1.192112   -1.053248    0.000088
      2          6           0        0.196196   -1.140488    0.000059
      3          6           0        0.999278    0.019156    0.000021
      4          6           0        0.364684    1.274509   -0.000002
      5          6           0       -1.026489    1.370070   -0.000004
      6          6           0       -1.811991    0.207678    0.000078
      7          1           0       -1.815933   -1.942545    0.000127
      8          1           0        0.676797   -2.114897    0.000027
      9          1           0        0.970725    2.176142   -0.000080
     10          1           0       -1.508752    2.346104   -0.000028
     11          5           0        2.562199   -0.087305    0.000041
     12          8           0        3.286242    1.082290   -0.000135
     13          1           0        4.249897    0.997286    0.000056
     14          8           0        3.121600   -1.343423   -0.000019
     15          1           0        4.087837   -1.390183    0.000211
     16          6           0       -3.288494    0.324932    0.000151
     17          1           0       -3.675824    1.367639    0.000683
     18          8           0       -4.063114   -0.616201   -0.000289
 ---------------------------------------------------------------------

 SCF Done:  E(RB3LYP) =  -521.625851099     A.U. after    1 cycles

 The electronic state is 1-A.
 Alpha  occ. eigenvalues --  -19.19141 -19.19121 -19.15723 -10.28233 -10.21371
 Alpha  occ. eigenvalues --  -10.21317 -10.20773 -10.20724 -10.20606 -10.19483
 Alpha  occ. eigenvalues --   -6.81318  -1.06450  -1.04902  -1.03166  -0.87027
 Alpha  occ. eigenvalues --   -0.77512  -0.76118  -0.66210  -0.62481  -0.59648
 Alpha  occ. eigenvalues --   -0.57639  -0.56854  -0.51650  -0.47842  -0.46384
 Alpha  occ. eigenvalues --   -0.45467  -0.43481  -0.43177  -0.42102  -0.41771
 Alpha  occ. eigenvalues --   -0.40828  -0.36868  -0.36493  -0.35194  -0.34903
 Alpha  occ. eigenvalues --   -0.34859  -0.27059  -0.26748  -0.26455
 Alpha virt. eigenvalues --   -0.08178  -0.03825  -0.02298   0.00213   0.00651
 Alpha virt. eigenvalues --    0.01089   0.02468   0.02600   0.04001   0.04422
 Alpha virt. eigenvalues --    0.05398   0.06481   0.07200   0.09106   0.09121

 Mulliken charges:
               1
     1  C    0.141403
     2  C   -0.152565
     3  C   -0.657673
     4  C   -0.038608
     5  C   -0.833598
     6  C    0.639900
     7  H    0.215790
     8  H    0.204961
     9  H    0.203934
    10  H    0.185047
    11  B    0.865439
    12  O   -0.784019
    13  H    0.496851
    14  O   -0.782588
    15  H    0.497449
    16  C    0.020545
    17  H    0.155017
    18  O   -0.377286
 Sum of Mulliken charges =   0.00000

 Dipole moment (field-independent basis, Debye):
    X=              5.8722    Y=              1.4204    Z=              0.0017  Tot=              6.0415
 Quadrupole moment (field-independent basis, Debye-Ang):
   XX=            -55.4223   YY=            -62.3199   ZZ=            -66.0347
   XY=             -8.3516   XZ=              0.0003   YZ=             -0.0007

  Exact polarizability: 157.923   1.496 107.721   0.000   0.002  56.689
 Approx polarizability: 226.509   9.902 180.733   0.003   0.004  83.254

                      1                      2                      3
                      A                      A                      A
 Frequencies --     57.7650                75.5285               137.4191
 Red. masses --      6.8535                 6.5975                 6.7269
 Frc consts  --      0.0135                 0.0222                 0.0748
 IR Inten    --      0.4730                 0.0359                 1.7941

                      4                      5                      6
                      A                      A                      A
 Frequencies --    152.9750               234.3153               269.7559
 Red. masses --      3.4985                 6.7056                 3.0025
 Frc consts  --      0.0482                 0.2169                 0.1287
 IR Inten    --     17.5435                 8.8819                 0.3898

                      7                      8                      9
                      A                      A                      A
 Frequencies --    304.9434               403.9796               425.8458
 Red. masses --      6.9399                 1.3366                 1.8188
 Frc consts  --      0.3802                 0.1285                 0.1943
 IR Inten    --      8.5982                 0.0253                 0.3818

                     10                     11                     12
                      A                      A                      A
 Frequencies --    426.4247               458.5089               480.6953
 Red. masses --      6.8956                 2.4972                 4.7899
 Frc consts  --      0.7388                 0.3093                 0.6521
 IR Inten    --      8.9017                60.0680                22.3494

                     13                     14                     15
                      A                      A                      A
 Frequencies --    553.8897               595.7996               645.7314
 Red. masses --      1.3412                 4.2288                 7.0269
 Frc consts  --      0.2424                 0.8844                 1.7263
 IR Inten    --    156.8937                12.0477                 0.7329

                     16                     17                     18
                      A                      A                      A
 Frequencies --    654.8349               720.7841               751.7683
 Red. masses --      5.0225                 5.2563                 3.7169
 Frc consts  --      1.2689                 1.6089                 1.2377
 IR Inten    --    100.4503                51.7690                10.7412

                     19                     20                     21
                      A                      A                      A
 Frequencies --    848.4239               851.1532               878.0839
 Red. masses --      5.2385                 1.4471                 1.2658
 Frc consts  --      2.2217                 0.6177                 0.5750
 IR Inten    --     41.9201                34.0400                 2.6691

                     22                     23                     24
                      A                      A                      A
 Frequencies --    916.7104               992.6953               997.9628
 Red. masses --      1.1057                 1.3432                 2.6646
 Frc consts  --      0.5475                 0.7798                 1.5635
 IR Inten    --    178.7682                 0.3353               190.3276

                     25                     26                     27
                      A                      A                      A
 Frequencies --   1011.8015              1032.2911              1041.1703
 Red. masses --      1.3890                 1.7561                 2.8321
 Frc consts  --      0.8378                 1.1025                 1.8088
 IR Inten    --      0.0849                 1.3933                 0.9108

                     28                     29                     30
                      A                      A                      A
 Frequencies --   1119.9197              1144.4490              1209.5917
 Red. masses --      2.4187                 1.4693                 1.5437
 Frc consts  --      1.7873                 1.1338                 1.3307
 IR Inten    --      0.4081                 6.3522                52.8591

                     31                     32                     33
                      A                      A                      A
 Frequencies --   1240.4593              1332.9751              1347.5343
 Red. masses --      1.8287                 3.9205                 1.6368
 Frc consts  --      1.6579                 4.1042                 1.7511
 IR Inten    --     43.5852                66.4650                44.8750

                     34                     35                     36
                      A                      A                      A
 Frequencies --   1370.8636              1387.6849              1427.0466
 Red. masses --      3.7139                 7.9887                 1.6751
 Frc consts  --      4.1122                 9.0638                 2.0098
 IR Inten    --    355.0831               239.6713                49.6202

                     37                     38                     39
                      A                      A                      A
 Frequencies --   1455.5824              1550.2938              1605.8867
 Red. masses --      1.7778                 2.3666                 6.0777
 Frc consts  --      2.2192                 3.3512                 9.2346
 IR Inten    --     37.5509                46.5812                15.7870

                     40                     41                     42
                      A                      A                      A
 Frequencies --   1660.4679              1772.3893              2913.0030
 Red. masses --      5.3563                 9.8019                 1.0840
 Frc consts  --      8.7011                18.1417                 5.4196
 IR Inten    --      2.1996               320.0971               128.9649

                     43                     44                     45
                      A                      A                      A
 Frequencies --   3171.6525              3197.6503              3205.3133
 Red. masses --      1.0888                 1.0880                 1.0927
 Frc consts  --      6.4531                 6.5546                 6.6142
 IR Inten    --     10.1353                 1.9276                10.3759

                     46                     47                     48
                      A                      A                      A
 Frequencies --   3214.1665              3790.4151              3794.2134
 Red. masses --      1.0943                 1.0673                 1.0657
 Frc consts  --      6.6609                 9.0349                 9.0393
 IR Inten    --      4.6323                12.7755                81.7402

 - Thermochemistry -
 -------------------
 Temperature   298.150 Kelvin.  Pressure   1.00000 Atm.
 Atom     1 has atomic number  6 and mass  12.00000

 Molecular mass:   150.04882 amu.
 Principal axes and moments of inertia in atomic units:
                           1         2         3
     Eigenvalues --   535.299563333.822713869.12226
           X            0.99998  -0.00704   0.00000
           Y            0.00704   0.99998   0.00000
           Z            0.00000   0.00000   1.00000
 This molecule is an asymmetric top.
 Rotational symmetry number  1.
 Warning -- assumption of classical behavior for rotation
           may cause significant error
 Rotational temperatures (Kelvin)      0.16180     0.02598     0.02239
 Rotational constants (GHZ):           3.37146     0.54134     0.46645
 Zero-point vibrational energy     351898.4 (Joules/Mol)
                                   84.10573 (Kcal/Mol)
 Warning -- explicit consideration of  14 degrees of freedom as
           vibrations may cause significant error
 Vibrational temperatures:     83.11   108.67   197.72   220.10   337.13
          (Kelvin)            388.12   438.75   581.24   612.70   613.53
                              659.69   691.61   796.92   857.22   929.06
                              942.16  1037.05  1081.63  1220.69  1224.62
                             1263.37  1318.94  1428.27  1435.85  1455.76
                             1485.24  1498.01  1611.31  1646.61  1740.33
                             1784.74  1917.85  1938.80  1972.37  1996.57
                             2053.20  2094.26  2230.53  2310.51  2389.04
                             2550.07  4191.16  4563.30  4600.71  4611.73
                             4624.47  5453.56  5459.03

 Zero-point correction=                           0.134031 (Hartree/Particle)
 Thermal correction to Energy=                    0.143885
 Thermal correction to Enthalpy=                  0.144829
 Thermal correction to Gibbs Free Energy=         0.098307
 Sum of electronic and zero-point Energies=           -521.491820
 Sum of electronic and thermal Energies=              -521.481966
 Sum of electronic and thermal Enthalpies=            -521.481022
 Sum of electronic and thermal Free Energies=         -521.527544

                     E (Thermal)             CV                S
                      KCal/Mol        Cal/Mol-Kelvin    Cal/Mol-Kelvin
 Total                   90.289             37.072             97.913
 Electronic               0.000              0.000              0.000
 Translational            0.889              2.981             40.928
 Rotational               0.889              2.981             30.313
 Vibrational             88.512             31.110             26.672
 Vibration     1          0.596              1.974              4.532
 Vibration     2          0.599              1.965              4.004
 Vibration     3          0.614              1.916              2.839
 Vibration     4          0.619              1.899              2.635
 Vibration     5          0.654              1.788              1.846
 Vibration     6          0.674              1.729              1.598
 Vibration     7          0.696              1.664              1.390
 Vibration     8          0.769              1.462              0.948
 Vibration     9          0.788              1.414              0.872
 Vibration    10          0.788              1.413              0.870
 Vibration    11          0.817              1.342              0.770
 Vibration    12          0.837              1.293              0.708
 Vibration    13          0.909              1.131              0.536
 Vibration    14          0.954              1.041              0.457

 Optimization completed.
    -- Stationary point found.
 Normal termination of Gaussian 16 at Sun Sep 17 09:06:55 2023.
