 Gaussian 16, Revision B.01,
 Gaussian 16:  EM64L-G16RevB.01 20-Dec-2017

 ----------------------------------------------------------------------
 # opt freq ub3lyp/6-31+g(d) geom=connectivity empiricaldispersion=gd3
 volume
 ----------------------------------------------------------------------

 -------------------
 Title Card Required
 -------------------
 Symbolic Z-matrix:
 Charge =  0 Multiplicity = 2

 SCF Done:  E(UB3LYP) =  -347.032429243     A.U. after   21 cycles
 Optimization completed.
    -- Stationary point found.
 Normal termination of Gaussian 16 at Sun Sep 17 09:03:40 2023.

 ---------------------------------------------------------------------
 #N Geom=AllCheck Guess=TCheck SCRF=Check GenChk UB3LYP/6-31+G(d) Freq
 ---------------------------------------------------------------------

 Structure from the checkpoint file:  "molecule_3.chk"
 -------------------
 Title Card Required
 -------------------
 Charge =  0 Multiplicity = 2

                         Standard orientation:
 ---------------------------------------------------------------------
 Center     Atomic      Atomic             Coordinates (Angstroms)
 Number     Number       Type             X           Y           Z
 ---------------------------------------------------------------------
      1          6           0       -0.924859    1.213725   -0.012071
      2          6           0        0.459479    1.223591   -0.004517
      3          6           0        1.192378    0.000019    0.000187
      4          6           0        0.459496   -1.223573   -0.004514
      5          6           0       -0.924838   -1.213727   -0.012074
      6          6           0       -1.644059   -0.000005   -0.013242
      7          1           0       -1.470545    2.154269   -0.018503
      8          1           0        1.011372    2.158430   -0.004796
      9          1           0        1.011416   -2.158397   -0.004797
     10          1           0       -1.470509   -2.154279   -0.018509
     11          6           0        2.587669    0.000010    0.007194
     12          6           0        3.869783   -0.000020    0.011325
     13          6           0       -3.149511   -0.000015    0.016691
     14          1           0       -3.562878   -0.888930   -0.471357
     15          1           0       -3.509201   -0.000052    1.055388
     16          1           0       -3.562890    0.888926   -0.471299
 ---------------------------------------------------------------------

 SCF Done:  E(UB3LYP) =  -347.032429243     A.U. after    1 cycles

 The electronic state is 2-A.
 Alpha  occ. eigenvalues --  -10.25447 -10.25220 -10.23891 -10.23891 -10.23016
 Alpha  occ. eigenvalues --  -10.23015 -10.21981 -10.20395 -10.19950  -0.90343
 Alpha  occ. eigenvalues --   -0.83041  -0.78926  -0.76285  -0.71264  -0.64761
 Alpha  occ. eigenvalues --   -0.63483  -0.56954  -0.50616  -0.50172  -0.46558
 Alpha  occ. eigenvalues --   -0.46122  -0.45902  -0.42405  -0.40817  -0.39535
 Alpha  occ. eigenvalues --   -0.38045  -0.33231  -0.29770  -0.26850  -0.26795
 Alpha  occ. eigenvalues --   -0.25316
 Alpha virt. eigenvalues --   -0.06987  -0.04899  -0.01049   0.00896   0.00911
 Alpha virt. eigenvalues --    0.02421   0.03699   0.03801   0.04127   0.04358
 Alpha virt. eigenvalues --    0.05279   0.06454   0.06905   0.07129   0.07359

  Beta  occ. eigenvalues --  -10.25267 -10.25155 -10.23691 -10.23690 -10.23112
  Beta  occ. eigenvalues --  -10.23112 -10.21995 -10.19928 -10.19461  -0.89978
  Beta  occ. eigenvalues --   -0.82489  -0.78748  -0.75252  -0.69863  -0.64536
  Beta  occ. eigenvalues --   -0.62966  -0.56703  -0.50500  -0.49923  -0.46341
  Beta  occ. eigenvalues --   -0.46064  -0.45435  -0.42362  -0.39759  -0.39380
  Beta  occ. eigenvalues --   -0.37936  -0.30582  -0.29265  -0.26024  -0.25806
  Beta virt. eigenvalues --   -0.17076  -0.04990  -0.04202  -0.01036   0.00914
  Beta virt. eigenvalues --    0.00939   0.02933   0.03748   0.04119   0.04268
  Beta virt. eigenvalues --    0.04411   0.05676   0.07018   0.07120   0.07364

 Mulliken charges and spin densities:
               1          2
     1  C   -0.169095  -0.099898
     2  C   -0.060790   0.147981
     3  C   -0.548399  -0.042360
     4  C   -0.060800   0.147968
     5  C   -0.169035  -0.099901
     6  C    0.306202   0.232547
     7  H    0.191733   0.003095
     8  H    0.215855  -0.007147
     9  H    0.215857  -0.007147
    10  H    0.191733   0.003095
    11  C    1.299274   0.335809
    12  C   -1.323907   0.385933
    13  C   -0.770215  -0.021498
    14  H    0.219700   0.003457
    15  H    0.242188   0.014610
    16  H    0.219698   0.003457
 Sum of Mulliken charges =   0.00000   1.00000

 Dipole moment (field-independent basis, Debye):
    X=             -7.8499    Y=              0.0000    Z=              0.0425  Tot=              7.8500
 Quadrupole moment (field-independent basis, Debye-Ang):
   XX=            -76.4333   YY=            -47.7001   ZZ=            -55.5848
   XY=              0.0001   XZ=             -0.2632   YZ=              0.0000

  Exact polarizability: 200.982   0.000  95.789  -0.257   0.000  63.661
 Approx polarizability: 307.167  -0.001 152.387  -0.628   0.000  87.081

                      1                      2                      3
                      A                      A                      A
 Frequencies --     19.6902                70.1644               135.0042
 Red. masses --      1.0384                 6.6524                 7.1646
 Frc consts  --      0.0002                 0.0193                 0.0769
 IR Inten    --      0.2788                20.2633                 4.2996

                      4                      5                      6
                      A                      A                      A
 Frequencies --    150.1430               298.2936               347.2195
 Red. masses --      5.4297                 4.4714                 2.8332
 Frc consts  --      0.0721                 0.2344                 0.2013
 IR Inten    --     21.6549                 3.4413                 0.0115

                      7                      8                      9
                      A                      A                      A
 Frequencies --    389.5825               421.5708               502.3612
 Red. masses --      2.9354                 7.0310                 6.4244
 Frc consts  --      0.2625                 0.7362                 0.9552
 IR Inten    --      0.0024                 0.6200                 2.2337

                     10                     11                     12
                      A                      A                      A
 Frequencies --    504.8730               645.4421               701.2972
 Red. masses --      2.5621                 7.0409                 4.3685
 Frc consts  --      0.3848                 1.7282                 1.2659
 IR Inten    --     30.6574                 0.7365                 1.0165

                     13                     14                     15
                      A                      A                      A
 Frequencies --    718.0214               824.0069               835.5651
 Red. masses --      3.3686                 5.1346                 1.4926
 Frc consts  --      1.0232                 2.0541                 0.6140
 IR Inten    --      5.4050                 1.6543                31.1034

                     16                     17                     18
                      A                      A                      A
 Frequencies --    841.9315               988.0624               991.3956
 Red. masses --      1.2460                 1.2974                 1.3598
 Frc consts  --      0.5204                 0.7463                 0.7874
 IR Inten    --      0.0107                 0.5202                 0.0007

                     19                     20                     21
                      A                      A                      A
 Frequencies --   1020.8303              1028.1542              1062.2285
 Red. masses --      1.4149                 2.8484                 1.5841
 Frc consts  --      0.8687                 1.7741                 1.0531
 IR Inten    --      0.4721                 0.5887                22.5724

                     22                     23                     24
                      A                      A                      A
 Frequencies --   1153.5535              1187.2792              1239.9246
 Red. masses --      1.3606                 2.3262                 2.7794
 Frc consts  --      1.0667                 1.9320                 2.5176
 IR Inten    --      4.2338                95.6716                 3.0008

                     25                     26                     27
                      A                      A                      A
 Frequencies --   1240.8491              1322.7523              1345.9432
 Red. masses --      1.7655                 2.4305                 2.0991
 Frc consts  --      1.6016                 2.5055                 2.2405
 IR Inten    --      1.2463                 2.9781                 5.9274

                     28                     29                     30
                      A                      A                      A
 Frequencies --   1435.1384              1455.5642              1498.2482
 Red. masses --      1.2242                 2.5909                 1.1822
 Frc consts  --      1.4856                 3.2342                 1.5635
 IR Inten    --      3.1031                 6.3632                11.7991

                     31                     32                     33
                      A                      A                      A
 Frequencies --   1511.6111              1520.9068              1559.3819
 Red. masses --      1.0753                 2.1179                 3.5209
 Frc consts  --      1.4477                 2.8865                 5.0443
 IR Inten    --      9.9671                 0.4237                 0.6672

                     34                     35                     36
                      A                      A                      A
 Frequencies --   1632.4750              1995.6281              3034.7754
 Red. masses --      5.0083                11.9675                 1.0429
 Frc consts  --      7.8638                28.0811                 5.6593
 IR Inten    --    188.8906               108.1863                 8.8809

                     37                     38                     39
                      A                      A                      A
 Frequencies --   3095.7974              3127.1354              3186.0752
 Red. masses --      1.0919                 1.1035                 1.0894
 Frc consts  --      6.1654                 6.3578                 6.5153
 IR Inten    --     17.6193                11.6679                10.4175

                     40                     41                     42
                      A                      A                      A
 Frequencies --   3187.0138              3218.7101              3220.0646
 Red. masses --      1.0898                 1.0934                 1.0947
 Frc consts  --      6.5216                 6.6743                 6.6876
 IR Inten    --     11.7445                 5.2562                 0.6355

 - Thermochemistry -
 -------------------
 Temperature   298.150 Kelvin.  Pressure   1.00000 Atm.
 Atom     1 has atomic number  6 and mass  12.00000

 Molecular mass:   115.05478 amu.
 Principal axes and moments of inertia in atomic units:
                           1         2         3
     Eigenvalues --   332.847651782.099712103.64535
           X            1.00000   0.00000  -0.00061
           Y            0.00000   1.00000   0.00000
           Z            0.00061   0.00000   1.00000
 This molecule is an asymmetric top.
 Rotational symmetry number  1.
 Rotational temperatures (Kelvin)      0.26022     0.04860     0.04117
 Rotational constants (GHZ):           5.42212     1.01270     0.85791
 Zero-point vibrational energy     326967.3 (Joules/Mol)
                                   78.14706 (Kcal/Mol)
 Warning -- explicit consideration of  10 degrees of freedom as
           vibrations may cause significant error
 Vibrational temperatures:     28.33   100.95   194.24   216.02   429.18
          (Kelvin)            499.57   560.52   606.55   722.79   726.40
                              928.65  1009.01  1033.07  1185.56  1202.19
                             1211.35  1421.60  1426.40  1468.75  1479.28
                             1528.31  1659.71  1708.23  1783.97  1785.31
                             1903.15  1936.51  2064.84  2094.23  2155.64
                             2174.87  2188.25  2243.60  2348.77  2871.26
                             4366.36  4454.16  4499.25  4584.05  4585.40
                             4631.01  4632.95

 Zero-point correction=                           0.124535 (Hartree/Particle)
 Thermal correction to Energy=                    0.133066
 Thermal correction to Enthalpy=                  0.134011
 Thermal correction to Gibbs Free Energy=         0.089102
 Sum of electronic and zero-point Energies=           -346.907894
 Sum of electronic and thermal Energies=              -346.899363
 Sum of electronic and thermal Enthalpies=            -346.898419
 Sum of electronic and thermal Free Energies=         -346.943327

                     E (Thermal)             CV                S
                      KCal/Mol        Cal/Mol-Kelvin    Cal/Mol-Kelvin
 Total                   83.500             30.130             94.518
 Electronic               0.000              0.000              1.377
 Translational            0.889              2.981             40.136
 Rotational               0.889              2.981             28.614
 Vibrational             81.723             24.168             24.391
 Vibration     1          0.593              1.986              6.665
 Vibration     2          0.598              1.968              4.149
 Vibration     3          0.613              1.918              2.873
 Vibration     4          0.618              1.903              2.670
 Vibration     5          0.691              1.677              1.426
 Vibration     6          0.725              1.581              1.179
 Vibration     7          0.758              1.492              1.002
 Vibration     8          0.784              1.423              0.887
 Vibration     9          0.858              1.245              0.652
 Vibration    10          0.860              1.239              0.646

                           ! Non-Optimized Parameters !
 Normal termination of Gaussian 16 at Sun Sep 17 09:05:15 2023.
