 Gaussian 16, Revision B.01,
 Gaussian 16:  EM64L-G16RevB.01 20-Dec-2017

 ----------------------------------------------------------------
 # opt freq b3lyp/6-31+g(d) nosymm empiricaldispersion=gd3 volume
 ----------------------------------------------------------------

 -----------
 molecule_11
 -----------
 Symbolic Z-matrix:
 Charge =  0 Multiplicity = 1

 SCF Done:  E(RB3LYP) =  -507.535138420     A.U. after   14 cycles
 SCF Done:  E(RB3LYP) =  -507.536952075     A.U. after   12 cycles
 SCF Done:  E(RB3LYP) =  -507.537052193     A.U. after   10 cycles
 SCF Done:  E(RB3LYP) =  -507.537057351     A.U. after    9 cycles
 SCF Done:  E(RB3LYP) =  -507.537057857     A.U. after    8 cycles
 Optimization completed.
    -- Stationary point found.
 Normal termination of Gaussian 16 at Fri Sep 15 03:45:25 2023.

 ---------------------------------------------------------------------
 #N Geom=AllCheck Guess=TCheck SCRF=Check GenChk RB3LYP/6-31+G(d) Freq
 ---------------------------------------------------------------------

 Structure from the checkpoint file:  "MOLECULE_24.chk"
 -----------
 molecule_11
 -----------
 Charge =  0 Multiplicity = 1

                          Input orientation:
 ---------------------------------------------------------------------
 Center     Atomic      Atomic             Coordinates (Angstroms)
 Number     Number       Type             X           Y           Z
 ---------------------------------------------------------------------
      1          6           0       -0.218880   -0.658626    0.380315
      2          6           0        1.176898   -0.646989    0.375997
      3          6           0        1.901261    0.500095   -0.000163
      4          6           0        1.177705    1.647822   -0.375911
      5          6           0       -0.218065    1.660658   -0.379561
      6          6           0       -0.884934    0.501302    0.000533
      7          1           0        1.716970   -1.542900    0.669340
      8          1           0       -0.786983    2.539241   -0.667201
      9          5           0        3.461114    0.499399   -0.000614
     10          8           0        4.110386    1.654161   -0.379495
     11          1           0        5.077297    1.629202   -0.371353
     12          8           0        4.109574   -0.655629    0.378837
     13          1           0        5.076502   -0.631312    0.370849
     14          1           0        1.718406    2.543258   -0.669544
     15          1           0       -0.788418   -1.536717    0.668229
     16          9           0       -2.245376    0.501892    0.000881
 ---------------------------------------------------------------------

 SCF Done:  E(RB3LYP) =  -507.537057857     A.U. after    1 cycles

 Alpha  occ. eigenvalues --  -24.72210 -19.18394 -19.18394 -10.28206 -10.20457
 Alpha  occ. eigenvalues --  -10.20456 -10.20230 -10.20230 -10.18106  -6.80473
 Alpha  occ. eigenvalues --   -1.22616  -1.05707  -1.02398  -0.86382  -0.76034
 Alpha  occ. eigenvalues --   -0.75142  -0.62805  -0.62481  -0.58047  -0.56422
 Alpha  occ. eigenvalues --   -0.54570  -0.48512  -0.48065  -0.46779  -0.45510
 Alpha  occ. eigenvalues --   -0.43475  -0.42700  -0.40758  -0.40111  -0.36206
 Alpha  occ. eigenvalues --   -0.36066  -0.34761  -0.34525  -0.34179  -0.26427
 Alpha  occ. eigenvalues --   -0.25257
 Alpha virt. eigenvalues --   -0.03450  -0.03381  -0.01935   0.01224   0.01416
 Alpha virt. eigenvalues --    0.02994   0.03740   0.03821   0.04428   0.07151
 Alpha virt. eigenvalues --    0.07639   0.08294   0.08861   0.09359   0.10298

 Mulliken charges:
               1
     1  C    0.021647
     2  C   -0.228630
     3  C   -0.404988
     4  C   -0.228628
     5  C    0.021647
     6  C    0.116560
     7  H    0.204570
     8  H    0.197690
     9  B    0.852803
    10  O   -0.792730
    11  H    0.493273
    12  O   -0.792732
    13  H    0.493275
    14  H    0.204570
    15  H    0.197690
    16  F   -0.356017
 Sum of Mulliken charges =   0.00000

 Dipole moment (field-independent basis, Debye):
    X=              4.1116    Y=             -0.0017    Z=             -0.0008  Tot=              4.1116
 Quadrupole moment (field-independent basis, Debye-Ang):
   XX=            -33.3118   YY=            -55.8129   ZZ=            -59.5554
   XY=              2.0507   XZ=             -0.0019   YZ=             -1.3718

  Exact polarizability: 119.664  -0.015  90.488  -0.019 -12.862  55.453
 Approx polarizability: 173.904  -0.017 145.245  -0.030 -23.351  81.645

                      1                      2                      3
                      A                      A                      A
 Frequencies --     62.1347               101.8017               156.4366
 Red. masses --      6.3341                 6.9814                 6.1517
 Frc consts  --      0.0144                 0.0426                 0.0887
 IR Inten    --      0.0000                 1.7197                 2.1035

                      4                      5                      6
                      A                      A                      A
 Frequencies --    281.5633               313.7990               375.4897
 Red. masses --      5.6631                 8.2118                 8.8528
 Frc consts  --      0.2645                 0.4764                 0.7354
 IR Inten    --     12.7704                 1.3692                 9.7712

                      7                      8                      9
                      A                      A                      A
 Frequencies --    390.4392               428.7205               455.3846
 Red. masses --      1.1722                 2.3022                 5.3261
 Frc consts  --      0.1053                 0.2493                 0.6508
 IR Inten    --      0.0000                 0.0000                 0.6582

                     10                     11                     12
                      A                      A                      A
 Frequencies --    492.3369               516.6418               548.8829
 Red. masses --      2.1029                 4.2301                 1.4430
 Frc consts  --      0.3003                 0.6652                 0.2561
 IR Inten    --     96.5248                66.3163               116.6439

                     13                     14                     15
                      A                      A                      A
 Frequencies --    644.1794               651.4272               671.1980
 Red. masses --      7.2252                 4.8836                 4.6847
 Frc consts  --      1.7665                 1.2210                 1.2435
 IR Inten    --      0.5106                94.3911                 0.0055

                     16                     17                     18
                      A                      A                      A
 Frequencies --    740.0850               835.6181               839.4990
 Red. masses --      4.6039                 6.8471                 1.2428
 Frc consts  --      1.4857                 2.8169                 0.5161
 IR Inten    --     10.5926                19.5846                 0.0002

                     19                     20                     21
                      A                      A                      A
 Frequencies --    857.6330               918.7659               978.6576
 Red. masses --      1.6333                 1.1056                 1.3102
 Frc consts  --      0.7078                 0.5499                 0.7393
 IR Inten    --     56.4331               173.0551                 0.0083

                     22                     23                     24
                      A                      A                      A
 Frequencies --    992.9293               997.0750              1038.1140
 Red. masses --      1.3516                 2.6627                 2.5970
 Frc consts  --      0.7851                 1.5597                 1.6490
 IR Inten    --      0.0025               183.8180                 0.0049

                     25                     26                     27
                      A                      A                      A
 Frequencies --   1119.4164              1127.4922              1195.0137
 Red. masses --      2.3009                 1.3652                 1.3354
 Frc consts  --      1.6987                 1.0226                 1.1235
 IR Inten    --      4.1004                10.0535                59.4220

                     28                     29                     30
                      A                      A                      A
 Frequencies --   1251.1259              1326.3964              1339.1239
 Red. masses --      2.9935                 4.9112                 1.4697
 Frc consts  --      2.7608                 5.0908                 1.5528
 IR Inten    --    100.5938                53.4925                25.3746

                     31                     32                     33
                      A                      A                      A
 Frequencies --   1374.2698              1378.5231              1440.4605
 Red. masses --      3.5550                 8.6102                 3.1052
 Frc consts  --      3.9558                 9.6403                 3.7961
 IR Inten    --    367.5962               241.9510                54.2904

                     34                     35                     36
                      A                      A                      A
 Frequencies --   1553.4180              1632.5249              1650.1342
 Red. masses --      2.6286                 6.9100                 5.5596
 Frc consts  --      3.7372                10.8504                 8.9194
 IR Inten    --     20.6004                25.3195               135.2955

                     37                     38                     39
                      A                      A                      A
 Frequencies --   3199.5134              3200.1683              3217.7901
 Red. masses --      1.0886                 1.0884                 1.0943
 Frc consts  --      6.5659                 6.5672                 6.6760
 IR Inten    --      3.6647                 4.0049                 8.7842

                     40                     41                     42
                      A                      A                      A
 Frequencies --   3218.8394              3790.9117              3794.5566
 Red. masses --      1.0950                 1.0673                 1.0656
 Frc consts  --      6.6842                 9.0373                 9.0403
 IR Inten    --      3.9931                11.4268                71.7845

 - Thermochemistry -
 -------------------
 Temperature   298.150 Kelvin.  Pressure   1.00000 Atm.
 Atom     1 has atomic number  6 and mass  12.00000

 Molecular mass:   140.04449 amu.
 Principal axes and moments of inertia in atomic units:
                           1         2         3
     Eigenvalues --   497.929792491.146252989.07594
           X            1.00000   0.00033   0.00031
           Y           -0.00041   0.95022   0.31157
           Z           -0.00019  -0.31157   0.95022
 This molecule is an asymmetric top.
 Rotational symmetry number  1.
 Warning -- assumption of classical behavior for rotation
           may cause significant error
 Rotational temperatures (Kelvin)      0.17395     0.03477     0.02898
 Rotational constants (GHZ):           3.62449     0.72446     0.60378
 Zero-point vibrational energy     305636.9 (Joules/Mol)
                                   73.04896 (Kcal/Mol)
 Warning -- explicit consideration of  12 degrees of freedom as
           vibrations may cause significant error
 Vibrational temperatures:     89.40   146.47   225.08   405.11   451.49
          (Kelvin)            540.25   561.75   616.83   655.20   708.36
                              743.33   789.72   926.83   937.26   965.70
                             1064.82  1202.27  1207.85  1233.94  1321.90
                             1408.07  1428.60  1434.57  1493.61  1610.59
                             1622.21  1719.36  1800.09  1908.39  1926.70
                             1977.27  1983.39  2072.50  2235.02  2348.84
                             2374.18  4603.39  4604.33  4629.68  4631.19
                             5454.28  5459.52

 Zero-point correction=                           0.116411 (Hartree/Particle)
 Thermal correction to Energy=                    0.125108
 Thermal correction to Enthalpy=                  0.126053
 Thermal correction to Gibbs Free Energy=         0.082380
 Sum of electronic and zero-point Energies=           -507.420647
 Sum of electronic and thermal Energies=              -507.411949
 Sum of electronic and thermal Enthalpies=            -507.411005
 Sum of electronic and thermal Free Energies=         -507.454678

                     E (Thermal)             CV                S
                      KCal/Mol        Cal/Mol-Kelvin    Cal/Mol-Kelvin
 Total                   78.507             33.393             91.916
 Electronic               0.000              0.000              0.000
 Translational            0.889              2.981             40.722
 Rotational               0.889              2.981             29.696
 Vibrational             76.729             27.431             21.499
 Vibration     1          0.597              1.972              4.388
 Vibration     2          0.604              1.948              3.420
 Vibration     3          0.620              1.895              2.592
 Vibration     4          0.681              1.708              1.524
 Vibration     5          0.702              1.647              1.342
 Vibration     6          0.746              1.522              1.057
 Vibration     7          0.758              1.491              0.998
 Vibration     8          0.790              1.408              0.863
 Vibration     9          0.814              1.349              0.780
 Vibration    10          0.848              1.267              0.678
 Vibration    11          0.872              1.213              0.618
 Vibration    12          0.904              1.142              0.546

 Optimization completed.
    -- Stationary point found.
 Normal termination of Gaussian 16 at Fri Sep 15 03:46:30 2023.
