 Gaussian 16, Revision B.01,
 Gaussian 16:  EM64L-G16RevB.01 20-Dec-2017

 ----------------------------------------------------------------------
 # opt freq b3lyp/6-31+g(d) empiricaldispersion=gd3 scf=maxcycle=1000 v
 olume
 ----------------------------------------------------------------------

 -------------------
 Title Card Required
 -------------------
 Symbolic Z-matrix:
 Charge =  0 Multiplicity = 1

 SCF Done:  E(RB3LYP) =  -461.141540236     A.U. after   15 cycles
 Optimization completed.
    -- Stationary point found.
 Normal termination of Gaussian 16 at Tue Sep 19 06:54:16 2023.

 ---------------------------------------------------------------------
 #N Geom=AllCheck Guess=TCheck SCRF=Check GenChk RB3LYP/6-31+G(d) Freq
 ---------------------------------------------------------------------

 Structure from the checkpoint file:  "molecule38vol.chk"
 -------------------
 Title Card Required
 -------------------
 Charge =  0 Multiplicity = 1

                         Standard orientation:
 ---------------------------------------------------------------------
 Center     Atomic      Atomic             Coordinates (Angstroms)
 Number     Number       Type             X           Y           Z
 ---------------------------------------------------------------------
      1          6           0        1.948743    1.580611    0.000008
      2          6           0        0.620317    1.943366    0.000002
      3          6           0       -0.394544    0.945968   -0.000003
      4          6           0       -0.027530   -0.439665   -0.000002
      5          6           0        1.361084   -0.770559   -0.000005
      6          6           0        2.327488    0.215532   -0.000005
      7          1           0       -2.060877    2.327967   -0.000009
      8          1           0        0.331930    2.991439    0.000007
      9          6           0       -1.777733    1.277675   -0.000004
     10          6           0       -1.042145   -1.433793    0.000006
     11          1           0        3.381877   -0.054709   -0.000026
     12          6           0       -2.373473   -1.073049    0.000006
     13          6           0       -2.744655    0.294949   -0.000001
     14          1           0       -0.751240   -2.478881    0.000013
     15          1           0       -3.143853   -1.839765    0.000014
     16          1           0       -3.797162    0.566888   -0.000003
     17          1           0        2.724473    2.342065    0.000013
     18          8           0        1.663046   -2.109066   -0.000025
     19          1           0        2.625172   -2.228680    0.000177
 ---------------------------------------------------------------------

 SCF Done:  E(RB3LYP) =  -461.141540236     A.U. after    1 cycles

 The electronic state is 1-A.
 Alpha  occ. eigenvalues --  -19.19754 -10.26244 -10.20691 -10.20467 -10.20176
 Alpha  occ. eigenvalues --  -10.19882 -10.19814 -10.19704 -10.19628 -10.19548
 Alpha  occ. eigenvalues --  -10.19233  -1.07442  -0.87622  -0.82510  -0.77429
 Alpha  occ. eigenvalues --   -0.74889  -0.72184  -0.64077  -0.62494  -0.60588
 Alpha  occ. eigenvalues --   -0.54947  -0.52270  -0.50776  -0.48461  -0.45510
 Alpha  occ. eigenvalues --   -0.43454  -0.43011  -0.42366  -0.41194  -0.39590
 Alpha  occ. eigenvalues --   -0.37882  -0.37068  -0.34644  -0.34018  -0.32535
 Alpha  occ. eigenvalues --   -0.27301  -0.25139  -0.21141
 Alpha virt. eigenvalues --   -0.04383  -0.02149  -0.00823   0.01035   0.01528
 Alpha virt. eigenvalues --    0.02143   0.02905   0.03662   0.05458   0.05659
 Alpha virt. eigenvalues --    0.05733   0.06308   0.07248   0.07888   0.08521

 Mulliken charges:
               1
     1  C   -0.483793
     2  C   -0.092175
     3  C   -0.825996
     4  C   -0.165521
     5  C    0.685674
     6  C    0.165182
     7  H    0.182077
     8  H    0.179244
     9  C    0.164076
    10  C    0.186536
    11  H    0.163194
    12  C   -0.366700
    13  C   -0.342104
    14  H    0.209305
    15  H    0.180243
    16  H    0.179713
    17  H    0.180824
    18  O   -0.704262
    19  H    0.504483
 Sum of Mulliken charges =   0.00000

 Dipole moment (field-independent basis, Debye):
    X=              1.2774    Y=              0.2035    Z=              0.0003  Tot=              1.2935
 Quadrupole moment (field-independent basis, Debye-Ang):
   XX=            -50.9063   YY=            -59.9064   ZZ=            -70.1258
   XY=             -2.7384   XZ=              0.0010   YZ=             -0.0009

  Exact polarizability: 169.257   7.781 132.721   0.000   0.000  63.291
 Approx polarizability: 278.834  13.809 229.864   0.001   0.000  93.923

                      1                      2                      3
                      A                      A                      A
 Frequencies --    141.2606               176.0721               261.4179
 Red. masses --      4.4929                 3.9092                 3.7120
 Frc consts  --      0.0528                 0.0714                 0.1495
 IR Inten    --      0.4679                 5.7255                 6.5631

                      4                      5                      6
                      A                      A                      A
 Frequencies --    291.7089               358.5596               430.1333
 Red. masses --      5.3130                 1.1322                 3.1105
 Frc consts  --      0.2664                 0.0858                 0.3391
 IR Inten    --      7.2646               108.2411                 1.1474

                      7                      8                      9
                      A                      A                      A
 Frequencies --    471.8051               478.1829               485.4230
 Red. masses --      4.4352                 3.3473                 7.2901
 Frc consts  --      0.5817                 0.4510                 1.0121
 IR Inten    --      0.3321                 0.0779                 0.8655

                     10                     11                     12
                      A                      A                      A
 Frequencies --    531.7676               582.4311               584.5701
 Red. masses --      6.0147                 6.5811                 3.2172
 Frc consts  --      1.0021                 1.3153                 0.6477
 IR Inten    --      5.2984                 0.9411                 5.9703

                     13                     14                     15
                      A                      A                      A
 Frequencies --    639.3153               722.8178               738.5564
 Red. masses --      3.2847                 5.6027                 1.4035
 Frc consts  --      0.7910                 1.7247                 0.4510
 IR Inten    --      0.3222                 3.6983                 3.4357

                     16                     17                     18
                      A                      A                      A
 Frequencies --    782.3238               799.6875               799.8429
 Red. masses --      1.7095                 5.4368                 1.8655
 Frc consts  --      0.6164                 2.0485                 0.7031
 IR Inten    --     66.1065                 6.2097                69.3883

                     19                     20                     21
                      A                      A                      A
 Frequencies --    860.0413               886.2919               888.9845
 Red. masses --      1.4634                 1.5722                 4.9497
 Frc consts  --      0.6377                 0.7276                 2.3047
 IR Inten    --      0.1889                 0.9430                12.3752

                     22                     23                     24
                      A                      A                      A
 Frequencies --    963.1633               975.1146               999.6788
 Red. masses --      1.2896                 1.3480                 1.2957
 Frc consts  --      0.7049                 0.7552                 0.7629
 IR Inten    --      0.0068                 2.4295                 0.0036

                     25                     26                     27
                      A                      A                      A
 Frequencies --   1044.7966              1068.0305              1109.1290
 Red. masses --      3.1637                 2.6050                 2.2655
 Frc consts  --      2.0347                 1.7508                 1.6420
 IR Inten    --     24.6718                46.2514                18.9282

                     28                     29                     30
                      A                      A                      A
 Frequencies --   1175.1948              1188.7431              1204.9950
 Red. masses --      1.4343                 1.2992                 1.1225
 Frc consts  --      1.1671                 1.0817                 0.9603
 IR Inten    --     14.9193                23.3035                 1.3086

                     31                     32                     33
                      A                      A                      A
 Frequencies --   1226.0366              1260.8260              1280.8633
 Red. masses --      1.4983                 1.7766                 1.7164
 Frc consts  --      1.3270                 1.6640                 1.6591
 IR Inten    --     23.4716                17.7454                41.3427

                     34                     35                     36
                      A                      A                      A
 Frequencies --   1311.0872              1402.1513              1423.2323
 Red. masses --      2.2624                 4.6993                 4.6042
 Frc consts  --      2.2913                 5.4434                 5.4949
 IR Inten    --     79.8631                 8.7464                33.7219

                     37                     38                     39
                      A                      A                      A
 Frequencies --   1441.3075              1499.0050              1505.7773
 Red. masses --      1.8750                 2.0488                 2.3691
 Frc consts  --      2.2949                 2.7124                 3.1648
 IR Inten    --     25.3818                 6.3875                 9.9474

                     40                     41                     42
                      A                      A                      A
 Frequencies --   1562.8923              1625.8877              1647.7945
 Red. masses --      3.4881                 7.0093                 4.9558
 Frc consts  --      5.0199                10.9171                 7.9281
 IR Inten    --     17.8587                53.3137                21.8750

                     43                     44                     45
                      A                      A                      A
 Frequencies --   1681.1752              3165.8624              3173.9077
 Red. masses --      6.1600                 1.0885                 1.0864
 Frc consts  --     10.2579                 6.4280                 6.4478
 IR Inten    --     11.0058                18.4236                 1.0565

                     46                     47                     48
                      A                      A                      A
 Frequencies --   3182.3046              3186.7879              3200.3032
 Red. masses --      1.0883                 1.0900                 1.0957
 Frc consts  --      6.4938                 6.5218                 6.6118
 IR Inten    --      7.2494                19.5636                38.6271

                     49                     50                     51
                      A                      A                      A
 Frequencies --   3201.4635              3223.2076              3757.2455
 Red. masses --      1.0955                 1.0935                 1.0663
 Frc consts  --      6.6153                 6.6934                 8.8692
 IR Inten    --     16.4144                 7.9359                57.5754

 - Thermochemistry -
 -------------------
 Temperature   298.150 Kelvin.  Pressure   1.00000 Atm.
 Atom     1 has atomic number  6 and mass  12.00000

 Molecular mass:   144.05751 amu.
 Principal axes and moments of inertia in atomic units:
                           1         2         3
     Eigenvalues --   932.814931599.547072532.36200
           X            0.99994   0.01067   0.00000
           Y           -0.01067   0.99994   0.00000
           Z            0.00000   0.00000   1.00000
 This molecule is an asymmetric top.
 Rotational symmetry number  1.
 Warning -- assumption of classical behavior for rotation
           may cause significant error
 Rotational temperatures (Kelvin)      0.09285     0.05415     0.03420
 Rotational constants (GHZ):           1.93473     1.12828     0.71267
 Zero-point vibrational energy     398351.4 (Joules/Mol)
                                   95.20828 (Kcal/Mol)
 Warning -- explicit consideration of  12 degrees of freedom as
           vibrations may cause significant error
 Vibrational temperatures:    203.24   253.33   376.12   419.70   515.89
          (Kelvin)            618.87   678.82   688.00   698.42   765.10
                              837.99   841.07   919.83  1039.97  1062.62
                             1125.59  1150.57  1150.80  1237.41  1275.18
                             1279.05  1385.78  1402.97  1438.31  1503.23
                             1536.66  1595.79  1690.84  1710.34  1733.72
                             1763.99  1814.05  1842.88  1886.36  2017.38
                             2047.71  2073.72  2156.73  2166.48  2248.65
                             2339.29  2370.81  2418.84  4554.97  4566.55
                             4578.63  4585.08  4604.52  4606.19  4637.48
                             5405.84

 Zero-point correction=                           0.151724 (Hartree/Particle)
 Thermal correction to Energy=                    0.159717
 Thermal correction to Enthalpy=                  0.160661
 Thermal correction to Gibbs Free Energy=         0.119155
 Sum of electronic and zero-point Energies=           -460.989816
 Sum of electronic and thermal Energies=              -460.981823
 Sum of electronic and thermal Enthalpies=            -460.980879
 Sum of electronic and thermal Free Energies=         -461.022386

                     E (Thermal)             CV                S
                      KCal/Mol        Cal/Mol-Kelvin    Cal/Mol-Kelvin
 Total                  100.224             33.456             87.358
 Electronic               0.000              0.000              0.000
 Translational            0.889              2.981             40.806
 Rotational               0.889              2.981             29.714
 Vibrational             98.447             27.494             16.837
 Vibration     1          0.615              1.912              2.787
 Vibration     2          0.628              1.872              2.370
 Vibration     3          0.669              1.743              1.652
 Vibration     4          0.687              1.689              1.464
 Vibration     5          0.733              1.558              1.128
 Vibration     6          0.791              1.405              0.858
 Vibration     7          0.829              1.313              0.733
 Vibration     8          0.835              1.298              0.715
 Vibration     9          0.841              1.282              0.696
 Vibration    10          0.887              1.180              0.583
 Vibration    11          0.939              1.069              0.481
 Vibration    12          0.942              1.065              0.477

 Optimization completed.
    -- Stationary point found.
 Normal termination of Gaussian 16 at Tue Sep 19 06:56:05 2023.
