 Gaussian 16, Revision B.01,
 Gaussian 16:  EM64L-G16RevB.01 20-Dec-2017

 ----------------------------------------------------------------------
 # opt freq b3lyp/6-31+g(d) empiricaldispersion=gd3 scf=maxcycle=1000 v
 olume
 ----------------------------------------------------------------------

 -------------------
 Title Card Required
 -------------------
 Symbolic Z-matrix:
 Charge =  0 Multiplicity = 1

 SCF Done:  E(RB3LYP) =  -346.808183603     A.U. after   13 cycles
 Optimization completed.
    -- Stationary point found.
 Normal termination of Gaussian 16 at Tue Sep 19 06:53:10 2023.

 ---------------------------------------------------------------------
 #N Geom=AllCheck Guess=TCheck SCRF=Check GenChk RB3LYP/6-31+G(d) Freq
 ---------------------------------------------------------------------

 Structure from the checkpoint file:  "molecule37vol.chk"
 -------------------
 Title Card Required
 -------------------
 Charge =  0 Multiplicity = 1

                         Standard orientation:
 ---------------------------------------------------------------------
 Center     Atomic      Atomic             Coordinates (Angstroms)
 Number     Number       Type             X           Y           Z
 ---------------------------------------------------------------------
      1          6           0        0.158437    1.796700    0.000236
      2          6           0        1.322238    1.025707    0.000619
      3          6           0        1.213481   -0.370314    0.000060
      4          6           0       -0.041934   -0.981797   -0.000910
      5          6           0       -1.210311   -0.209802   -0.001158
      6          6           0       -1.099702    1.188579   -0.000745
      7          1           0        0.236555    2.881058    0.000370
      8          1           0        2.301769    1.500793    0.001169
      9          1           0       -0.091421   -2.067748   -0.001628
     10          8           0        2.310328   -1.197727    0.000151
     11          1           0        3.122949   -0.668729    0.000297
     12          1           0       -1.997763    1.801182   -0.001352
     13          6           0       -2.561006   -0.889800    0.000895
     14          1           0       -2.673101   -1.551257   -0.867348
     15          1           0       -2.691142   -1.508312    0.898030
     16          1           0       -3.377691   -0.160810   -0.024720
 ---------------------------------------------------------------------

 SCF Done:  E(RB3LYP) =  -346.808183603     A.U. after    1 cycles

 The electronic state is 1-A.
 Alpha  occ. eigenvalues --  -19.19119 -10.25712 -10.20602 -10.19959 -10.19606
 Alpha  occ. eigenvalues --  -10.18783 -10.18771 -10.18766  -1.06709  -0.85728
 Alpha  occ. eigenvalues --   -0.77491  -0.74540  -0.69182  -0.61583  -0.60794
 Alpha  occ. eigenvalues --   -0.53192  -0.50193  -0.47694  -0.44202  -0.42624
 Alpha  occ. eigenvalues --   -0.41666  -0.40537  -0.40439  -0.37803  -0.36258
 Alpha  occ. eigenvalues --   -0.34302  -0.33286  -0.24985  -0.22850
 Alpha virt. eigenvalues --   -0.01640  -0.00465   0.00221   0.01285   0.02071
 Alpha virt. eigenvalues --    0.03839   0.04339   0.04954   0.06310   0.06538
 Alpha virt. eigenvalues --    0.07827   0.08223   0.09303   0.10082   0.12024

 Mulliken charges:
               1
     1  C   -0.397924
     2  C    0.205371
     3  C    0.171957
     4  C    0.224051
     5  C    0.277527
     6  C   -0.748430
     7  H    0.178351
     8  H    0.162161
     9  H    0.185291
    10  O   -0.681121
    11  H    0.473374
    12  H    0.170260
    13  C   -0.871878
    14  H    0.222783
    15  H    0.224017
    16  H    0.204211
 Sum of Mulliken charges =   0.00000

 Dipole moment (field-independent basis, Debye):
    X=              0.3551    Y=              1.0223    Z=              0.0037  Tot=              1.0822
 Quadrupole moment (field-independent basis, Debye-Ang):
   XX=            -39.1013   YY=            -47.5074   ZZ=            -51.9704
   XY=              3.7438   XZ=             -0.0041   YZ=             -0.0003

  Exact polarizability: 107.043   1.765  94.173  -0.021  -0.009  51.823
 Approx polarizability: 159.149  -1.757 150.605  -0.020  -0.007  74.382

 ******    1 imaginary frequencies (negative Signs) ******

                      1                      2                      3
                      A                      A                      A
 Frequencies --    -30.3903               203.3282               233.9237
 Red. masses --      1.0432                 3.0194                 4.1049
 Frc consts  --      0.0006                 0.0735                 0.1323
 IR Inten    --      0.3776                 7.6486                 0.0320

                      4                      5                      6
                      A                      A                      A
 Frequencies --    299.5954               331.7496               449.8170
 Red. masses --      3.1755                 1.1119                 3.2465
 Frc consts  --      0.1679                 0.0721                 0.3870
 IR Inten    --      4.2281               113.6742                 6.3505

                      7                      8                      9
                      A                      A                      A
 Frequencies --    451.1249               524.3356               545.2213
 Red. masses --      2.8568                 5.5145                 6.2960
 Frc consts  --      0.3426                 0.8933                 1.1027
 IR Inten    --      3.2778                 0.2837                 2.2622

                     10                     11                     12
                      A                      A                      A
 Frequencies --    574.4641               683.2040               742.5009
 Red. masses --      3.5204                 2.4952                 6.1297
 Frc consts  --      0.6845                 0.6862                 1.9910
 IR Inten    --      1.1716                14.8262                 3.2800

                     13                     14                     15
                      A                      A                      A
 Frequencies --    773.1696               864.5186               887.2569
 Red. masses --      1.4052                 1.3090                 1.4274
 Frc consts  --      0.4949                 0.5764                 0.6621
 IR Inten    --     56.8684                 1.4651                11.5453

                     16                     17                     18
                      A                      A                      A
 Frequencies --    946.3972               966.0102              1010.2126
 Red. masses --      2.8331                 1.2865                 5.6304
 Frc consts  --      1.4951                 0.7073                 3.3855
 IR Inten    --     37.0661                 0.0595                 4.0692

                     19                     20                     21
                      A                      A                      A
 Frequencies --   1038.1172              1070.8382              1124.5750
 Red. masses --      1.5616                 1.5064                 1.6280
 Frc consts  --      0.9916                 1.0178                 1.2131
 IR Inten    --      5.3158                 3.4290                 6.1024

                     22                     23                     24
                      A                      A                      A
 Frequencies --   1182.1943              1199.0220              1212.6635
 Red. masses --      1.6550                 1.2459                 1.2324
 Frc consts  --      1.3628                 1.0553                 1.0678
 IR Inten    --     60.5809                20.5832                59.3981

                     25                     26                     27
                      A                      A                      A
 Frequencies --   1306.5116              1347.5438              1364.1321
 Red. masses --      4.0573                 1.3717                 4.9292
 Frc consts  --      4.0805                 1.4675                 5.4043
 IR Inten    --     88.3887                39.9819                 9.9169

                     28                     29                     30
                      A                      A                      A
 Frequencies --   1438.4922              1495.9391              1509.1503
 Red. masses --      1.2380                 1.6521                 1.0440
 Frc consts  --      1.5093                 2.1782                 1.4009
 IR Inten    --      0.7356                 0.2360                 7.4200

                     31                     32                     33
                      A                      A                      A
 Frequencies --   1528.3670              1533.5030              1638.3761
 Red. masses --      1.4560                 2.4140                 5.5462
 Frc consts  --      2.0038                 3.3447                 8.7714
 IR Inten    --     13.9989                60.7533                72.1301

                     34                     35                     36
                      A                      A                      A
 Frequencies --   1667.8294              3038.1493              3089.7112
 Red. masses --      5.8162                 1.0370                 1.1008
 Frc consts  --      9.5323                 5.6396                 6.1914
 IR Inten    --     58.2102                33.6106                16.9251

                     37                     38                     39
                      A                      A                      A
 Frequencies --   3116.4994              3164.3732              3180.8028
 Red. masses --      1.1012                 1.0881                 1.0891
 Frc consts  --      6.3014                 6.4193                 6.4923
 IR Inten    --     20.0307                12.4570                18.3362

                     40                     41                     42
                      A                      A                      A
 Frequencies --   3191.6281              3198.8650              3752.9933
 Red. masses --      1.0907                 1.0958                 1.0663
 Frc consts  --      6.5463                 6.6066                 8.8490
 IR Inten    --     12.1823                16.8677                48.4355

 - Thermochemistry -
 -------------------
 Temperature   298.150 Kelvin.  Pressure   1.00000 Atm.
 Atom     1 has atomic number  6 and mass  12.00000

 Molecular mass:   108.05751 amu.
 Principal axes and moments of inertia in atomic units:
                           1         2         3
     Eigenvalues --   496.765021007.398201492.93853
           X            0.99869   0.05115  -0.00003
           Y           -0.05115   0.99869  -0.00001
           Z            0.00003   0.00001   1.00000
 This molecule is an asymmetric top.
 Rotational symmetry number  1.
 Warning -- assumption of classical behavior for rotation
           may cause significant error
 Rotational temperatures (Kelvin)      0.17436     0.08598     0.05802
 Rotational constants (GHZ):           3.63299     1.79149     1.20885
    1 imaginary frequencies ignored.
 Zero-point vibrational energy     346182.0 (Joules/Mol)
                                   82.73948 (Kcal/Mol)
 Warning -- explicit consideration of   9 degrees of freedom as
           vibrations may cause significant error
 Vibrational temperatures:    292.54   336.56   431.05   477.31   647.19
          (Kelvin)            649.07   754.40   784.45   826.53   982.98
                             1068.29  1112.42  1243.85  1276.56  1361.65
                             1389.87  1453.47  1493.62  1540.70  1618.01
                             1700.91  1725.13  1744.75  1879.78  1938.81
                             1962.68  2069.67  2152.32  2171.33  2198.98
                             2206.37  2357.26  2399.63  4371.22  4445.41
                             4483.95  4552.83  4576.47  4592.04  4602.45
                             5399.72

 Zero-point correction=                           0.131854 (Hartree/Particle)
 Thermal correction to Energy=                    0.138390
 Thermal correction to Enthalpy=                  0.139335
 Thermal correction to Gibbs Free Energy=         0.101408
 Sum of electronic and zero-point Energies=           -346.676330
 Sum of electronic and thermal Energies=              -346.669793
 Sum of electronic and thermal Enthalpies=            -346.668849
 Sum of electronic and thermal Free Energies=         -346.706776

                     E (Thermal)             CV                S
                      KCal/Mol        Cal/Mol-Kelvin    Cal/Mol-Kelvin
 Total                   86.841             25.998             79.824
 Electronic               0.000              0.000              0.000
 Translational            0.889              2.981             39.949
 Rotational               0.889              2.981             28.104
 Vibrational             85.064             20.037             11.771
 Vibration     1          0.639              1.835              2.103
 Vibration     2          0.654              1.789              1.849
 Vibration     3          0.692              1.674              1.419
 Vibration     4          0.714              1.612              1.252
 Vibration     5          0.809              1.361              0.796
 Vibration     6          0.810              1.358              0.792
 Vibration     7          0.879              1.196              0.600
 Vibration     8          0.900              1.150              0.554
 Vibration     9          0.931              1.086              0.496

                           ! Non-Optimized Parameters !
 Normal termination of Gaussian 16 at Tue Sep 19 06:53:58 2023.
