 Gaussian 16, Revision B.01,
 Gaussian 16:  EM64L-G16RevB.01 20-Dec-2017

 ----------------------------------------------------------------------
 # opt freq ub3lyp/6-31+g(d) geom=connectivity empiricaldispersion=gd3
 volume
 ----------------------------------------------------------------------

 -------------------
 Title Card Required
 -------------------
 Symbolic Z-matrix:
 Charge =  0 Multiplicity = 2

 SCF Done:  E(UB3LYP) =  -422.237191037     A.U. after   25 cycles
 Optimization completed.
    -- Stationary point found.
 Normal termination of Gaussian 16 at Sun Sep 17 09:01:07 2023.

 ---------------------------------------------------------------------
 #N Geom=AllCheck Guess=TCheck SCRF=Check GenChk UB3LYP/6-31+G(d) Freq
 ---------------------------------------------------------------------

 Structure from the checkpoint file:  "molecule_2.chk"
 -------------------
 Title Card Required
 -------------------
 Charge =  0 Multiplicity = 2

                         Standard orientation:
 ---------------------------------------------------------------------
 Center     Atomic      Atomic             Coordinates (Angstroms)
 Number     Number       Type             X           Y           Z
 ---------------------------------------------------------------------
      1          6           0        0.502767    1.223777   -0.229736
      2          6           0       -0.873129    1.226828   -0.080491
      3          6           0       -1.598603    0.000000    0.001638
      4          6           0       -0.873128   -1.226827   -0.080494
      5          6           0        0.502768   -1.223773   -0.229739
      6          6           0        1.193775    0.000002   -0.300922
      7          1           0        1.066419    2.148847   -0.305046
      8          1           0       -1.425373    2.159727   -0.026267
      9          1           0       -1.425371   -2.159726   -0.026273
     10          1           0        1.066421   -2.148843   -0.305052
     11          6           0       -2.985431    0.000001    0.153893
     12          6           0       -4.256922   -0.000005    0.317411
     13          8           0        2.547547    0.000003   -0.490274
     14          6           0        3.336903   -0.000005    0.711223
     15          1           0        3.132292   -0.896757    1.310272
     16          1           0        4.378947   -0.000004    0.387586
     17          1           0        3.132293    0.896738    1.310284
 ---------------------------------------------------------------------

 SCF Done:  E(UB3LYP) =  -422.237191037     A.U. after    1 cycles

 The electronic state is 2-A.
 Alpha  occ. eigenvalues --  -19.20833 -10.29977 -10.27018 -10.25556 -10.24402
 Alpha  occ. eigenvalues --  -10.24401 -10.23400 -10.23400 -10.20550 -10.20110
 Alpha  occ. eigenvalues --   -1.09533  -0.90193  -0.81614  -0.79618  -0.75400
 Alpha  occ. eigenvalues --   -0.71749  -0.65737  -0.64252  -0.57569  -0.54893
 Alpha  occ. eigenvalues --   -0.52094  -0.49784  -0.48258  -0.47062  -0.46544
 Alpha  occ. eigenvalues --   -0.44036  -0.41815  -0.39780  -0.38753  -0.33180
 Alpha  occ. eigenvalues --   -0.31378  -0.30212  -0.27006  -0.26984  -0.25399
 Alpha virt. eigenvalues --   -0.07096  -0.05230  -0.01075   0.00806   0.00955
 Alpha virt. eigenvalues --    0.01829   0.02690   0.03526   0.03622   0.04088
 Alpha virt. eigenvalues --    0.04634   0.05401   0.06577   0.06935   0.07959

  Beta  occ. eigenvalues --  -19.20784 -10.29691 -10.26988 -10.25599 -10.24205
  Beta  occ. eigenvalues --  -10.24204 -10.23491 -10.23491 -10.20086 -10.19620
  Beta  occ. eigenvalues --   -1.09352  -0.89849  -0.81019  -0.79451  -0.74444
  Beta  occ. eigenvalues --   -0.70397  -0.65490  -0.63737  -0.57369  -0.54670
  Beta  occ. eigenvalues --   -0.51991  -0.49362  -0.48087  -0.46997  -0.46517
  Beta  occ. eigenvalues --   -0.43818  -0.40960  -0.39677  -0.38170  -0.31317
  Beta  occ. eigenvalues --   -0.30600  -0.29729  -0.26215  -0.25951
  Beta virt. eigenvalues --   -0.17220  -0.05089  -0.04512  -0.01054   0.00843
  Beta virt. eigenvalues --    0.00961   0.01885   0.02966   0.03820   0.04000
  Beta virt. eigenvalues --    0.04168   0.05139   0.05836   0.06575   0.07221

 Mulliken charges and spin densities:
               1          2
     1  C    0.240588  -0.094332
     2  C   -0.333857   0.141402
     3  C   -0.359921  -0.037653
     4  C   -0.333854   0.141404
     5  C    0.240585  -0.094332
     6  C   -0.174457   0.220781
     7  H    0.205995   0.002933
     8  H    0.219333  -0.007032
     9  H    0.219333  -0.007032
    10  H    0.205995   0.002933
    11  C    1.016792   0.339145
    12  C   -1.019606   0.379899
    13  O   -0.384024   0.008208
    14  C   -0.364397   0.003703
    15  H    0.202694  -0.000209
    16  H    0.216107   0.000392
    17  H    0.202694  -0.000209
 Sum of Mulliken charges =   0.00000   1.00000

 Dipole moment (field-independent basis, Debye):
    X=              7.4903    Y=              0.0000    Z=              0.6854  Tot=              7.5216
 Quadrupole moment (field-independent basis, Debye-Ang):
   XX=            -86.2481   YY=            -52.2864   ZZ=            -61.1957
   XY=             -0.0001   XZ=              7.6184   YZ=              0.0000

  Exact polarizability: 210.436   0.000  97.634  -6.470   0.000  68.168
 Approx polarizability: 316.013   0.000 154.672 -22.062   0.000  94.840

 ******    1 imaginary frequencies (negative Signs) ******

                      1                      2                      3
                      A                      A                      A
 Frequencies --    -97.0496                62.5636               126.8312
 Red. masses --      3.1122                 7.0437                 5.7254
 Frc consts  --      0.0173                 0.0162                 0.0543
 IR Inten    --      2.7345                19.9966                19.1153

                      4                      5                      6
                      A                      A                      A
 Frequencies --    132.9588               176.4735               226.4062
 Red. masses --      6.4871                 1.0850                 4.6506
 Frc consts  --      0.0676                 0.0199                 0.1405
 IR Inten    --      6.9470                 0.6349                12.2794

                      7                      8                      9
                      A                      A                      A
 Frequencies --    360.4773               385.6859               399.7934
 Red. masses --      5.6758                 3.9842                 4.2919
 Frc consts  --      0.4345                 0.3492                 0.4042
 IR Inten    --      4.6959                 3.5087                 5.3801

                     10                     11                     12
                      A                      A                      A
 Frequencies --    429.0290               503.4560               560.0609
 Red. masses --      6.7254                 6.3268                 2.4270
 Frc consts  --      0.7294                 0.9448                 0.4485
 IR Inten    --     14.6421                 0.4446                36.9826

                     13                     14                     15
                      A                      A                      A
 Frequencies --    643.0061               695.2542               748.5961
 Red. masses --      7.2345                 5.3640                 3.9266
 Frc consts  --      1.7623                 1.5277                 1.2965
 IR Inten    --      0.2334                 6.8221                 2.6299

                     16                     17                     18
                      A                      A                      A
 Frequencies --    826.1979               828.1929               872.0260
 Red. masses --      5.5899                 1.2368                 1.8231
 Frc consts  --      2.2482                 0.4998                 0.8168
 IR Inten    --      0.0753                 0.0133                39.8016

                     19                     20                     21
                      A                      A                      A
 Frequencies --    983.5334               987.4158              1020.5615
 Red. masses --      1.3318                 1.3487                 2.9924
 Frc consts  --      0.7590                 0.7748                 1.8363
 IR Inten    --      1.7929                 0.0031                 6.3978

                     22                     23                     24
                      A                      A                      A
 Frequencies --   1026.2877              1130.6523              1173.5002
 Red. masses --      5.2716                 1.3578                 1.2427
 Frc consts  --      3.2714                 1.0227                 1.0083
 IR Inten    --    105.2190                 7.6449                 1.5587

                     25                     26                     27
                      A                      A                      A
 Frequencies --   1177.5353              1203.3234              1221.5786
 Red. masses --      1.5614                 1.4140                 2.5002
 Frc consts  --      1.2756                 1.2063                 2.1982
 IR Inten    --    185.8071                 2.7042                 3.8504

                     28                     29                     30
                      A                      A                      A
 Frequencies --   1284.4554              1318.5463              1320.8789
 Red. masses --      3.6465                 1.3902                 5.9277
 Frc consts  --      3.5446                 1.4240                 6.0935
 IR Inten    --    351.2397                 0.2905                12.3297

                     31                     32                     33
                      A                      A                      A
 Frequencies --   1452.5243              1485.3980              1509.2385
 Red. masses --      3.2987                 1.2344                 1.0527
 Frc consts  --      4.1006                 1.6047                 1.4127
 IR Inten    --      7.2049                20.2503                10.8604

                     34                     35                     36
                      A                      A                      A
 Frequencies --   1520.1596              1523.1558              1555.2936
 Red. masses --      1.0612                 2.0200                 5.4637
 Frc consts  --      1.4448                 2.7612                 7.7868
 IR Inten    --     32.7470                27.0794                 3.4115

                     37                     38                     39
                      A                      A                      A
 Frequencies --   1624.6013              1995.2428              3027.9844
 Red. masses --      5.1098                11.9673                 1.0328
 Frc consts  --      7.9460                28.0697                 5.5792
 IR Inten    --    305.6400               106.9541                58.6370

                     40                     41                     42
                      A                      A                      A
 Frequencies --   3093.4067              3165.8138              3206.4806
 Red. masses --      1.1075                 1.1015                 1.0891
 Frc consts  --      6.2442                 6.5041                 6.5976
 IR Inten    --     29.6363                25.7010                 5.4470

                     43                     44                     45
                      A                      A                      A
 Frequencies --   3207.0400              3222.8381              3224.5191
 Red. masses --      1.0891                 1.0950                 1.0960
 Frc consts  --      6.5996                 6.7010                 6.7142
 IR Inten    --      0.5665                 3.1573                 1.6900

 - Thermochemistry -
 -------------------
 Temperature   298.150 Kelvin.  Pressure   1.00000 Atm.
 Atom     1 has atomic number  6 and mass  12.00000

 Molecular mass:   131.04969 amu.
 Principal axes and moments of inertia in atomic units:
                           1         2         3
     Eigenvalues --   392.594642486.854012754.16079
           X            0.99990   0.00000   0.01425
           Y            0.00000   1.00000   0.00000
           Z           -0.01425   0.00000   0.99990
 This molecule is an asymmetric top.
 Rotational symmetry number  1.
 Rotational temperatures (Kelvin)      0.22062     0.03483     0.03145
 Rotational constants (GHZ):           4.59696     0.72571     0.65528
    1 imaginary frequencies ignored.
 Zero-point vibrational energy     338776.3 (Joules/Mol)
                                   80.96948 (Kcal/Mol)
 Warning -- explicit consideration of  11 degrees of freedom as
           vibrations may cause significant error
 Vibrational temperatures:     90.02   182.48   191.30   253.91   325.75
          (Kelvin)            518.65   554.92   575.21   617.28   724.36
                              805.80   925.14  1000.32  1077.06  1188.71
                             1191.58  1254.65  1415.09  1420.67  1468.36
                             1476.60  1626.76  1688.41  1694.21  1731.31
                             1757.58  1848.04  1897.09  1900.45  2089.86
                             2137.16  2171.46  2187.17  2191.48  2237.72
                             2337.44  2870.71  4356.59  4450.72  4554.90
                             4613.41  4614.22  4636.95  4639.36

 Zero-point correction=                           0.129033 (Hartree/Particle)
 Thermal correction to Energy=                    0.137671
 Thermal correction to Enthalpy=                  0.138616
 Thermal correction to Gibbs Free Energy=         0.094342
 Sum of electronic and zero-point Energies=           -422.108158
 Sum of electronic and thermal Energies=              -422.099520
 Sum of electronic and thermal Enthalpies=            -422.098575
 Sum of electronic and thermal Free Energies=         -422.142849

                     E (Thermal)             CV                S
                      KCal/Mol        Cal/Mol-Kelvin    Cal/Mol-Kelvin
 Total                   86.390             31.535             93.182
 Electronic               0.000              0.000              1.377
 Translational            0.889              2.981             40.524
 Rotational               0.889              2.981             29.376
 Vibrational             84.613             25.573             21.905
 Vibration     1          0.597              1.972              4.375
 Vibration     2          0.611              1.926              2.994
 Vibration     3          0.613              1.920              2.903
 Vibration     4          0.628              1.871              2.365
 Vibration     5          0.650              1.801              1.907
 Vibration     6          0.735              1.554              1.120
 Vibration     7          0.754              1.501              1.017
 Vibration     8          0.766              1.471              0.963
 Vibration     9          0.790              1.407              0.862
 Vibration    10          0.859              1.242              0.650
 Vibration    11          0.916              1.118              0.524

                           ! Non-Optimized Parameters !
 Normal termination of Gaussian 16 at Sun Sep 17 09:03:15 2023.
