 Gaussian 16, Revision B.01,
 Gaussian 16:  EM64L-G16RevB.01 20-Dec-2017

 ----------------------------------------------------------------------
 # opt freq b3lyp/6-31+g(d) empiricaldispersion=gd3 scf=maxcycle=1000 v
 olume
 ----------------------------------------------------------------------

 -------------------
 Title Card Required
 -------------------
 Symbolic Z-matrix:
 Charge =  0 Multiplicity = 1

 SCF Done:  E(RB3LYP) =  -767.078556015     A.U. after   14 cycles
 Optimization completed.
    -- Stationary point found.
 Normal termination of Gaussian 16 at Tue Sep 19 06:52:21 2023.

 ---------------------------------------------------------------------
 #N Geom=AllCheck Guess=TCheck SCRF=Check GenChk RB3LYP/6-31+G(d) Freq
 ---------------------------------------------------------------------

 Structure from the checkpoint file:  "molecule36vol.chk"
 -------------------
 Title Card Required
 -------------------
 Charge =  0 Multiplicity = 1

                         Standard orientation:
 ---------------------------------------------------------------------
 Center     Atomic      Atomic             Coordinates (Angstroms)
 Number     Number       Type             X           Y           Z
 ---------------------------------------------------------------------
      1          6           0        0.274664   -1.215544   -0.006017
      2          6           0       -1.122172   -1.211082   -0.015469
      3          6           0       -1.818264    0.000034   -0.007768
      4          6           0       -1.122117    1.211136   -0.015381
      5          6           0        0.274695    1.215559   -0.005991
      6          6           0        0.961152   -0.000017    0.000650
      7          1           0        0.824735   -2.151000   -0.009926
      8          1           0       -1.679177   -2.143125   -0.035025
      9          1           0       -1.679154    2.143161   -0.034816
     10          1           0        0.824835    2.150974   -0.009852
     11          8           0       -3.206386    0.000184   -0.078067
     12          1           0       -3.585139   -0.001613    0.814919
     13         17           0        2.721014   -0.000023    0.011711
 ---------------------------------------------------------------------

 SCF Done:  E(RB3LYP) =  -767.078556015     A.U. after    1 cycles

 The electronic state is 1-A.
 Alpha  occ. eigenvalues -- -101.55787 -19.18748 -10.26483 -10.26342 -10.21837
 Alpha  occ. eigenvalues --  -10.21837 -10.21311 -10.21310  -9.47305  -7.23711
 Alpha  occ. eigenvalues --   -7.22736  -7.22713  -1.06185  -0.89906  -0.84249
 Alpha  occ. eigenvalues --   -0.77268  -0.73819  -0.63855  -0.61726  -0.56257
 Alpha  occ. eigenvalues --   -0.50135  -0.49357  -0.47029  -0.44696  -0.43578
 Alpha  occ. eigenvalues --   -0.40053  -0.38898  -0.38722  -0.33424  -0.32093
 Alpha  occ. eigenvalues --   -0.31513  -0.27632  -0.25004
 Alpha virt. eigenvalues --   -0.03276  -0.02605  -0.00663   0.00450   0.01324
 Alpha virt. eigenvalues --    0.02155   0.04224   0.05272   0.05968   0.06115
 Alpha virt. eigenvalues --    0.07470   0.08080   0.08428   0.08901   0.11590

 Mulliken charges:
               1
     1  C   -0.532851
     2  C    0.326540
     3  C   -0.615024
     4  C    0.325931
     5  C   -0.532922
     6  C    0.261876
     7  H    0.203814
     8  H    0.197533
     9  H    0.197568
    10  H    0.203818
    11  O   -0.700983
    12  H    0.497092
    13  Cl   0.167608
 Sum of Mulliken charges =   0.00000

 Dipole moment (field-independent basis, Debye):
    X=             -1.3392    Y=             -0.0030    Z=              1.5339  Tot=              2.0362
 Quadrupole moment (field-independent basis, Debye-Ang):
   XX=            -56.1052   YY=            -47.8482   ZZ=            -55.2191
   XY=              0.0128   XZ=             -6.3646   YZ=             -0.0031

  Exact polarizability: 117.013   0.003  85.626  -1.054  -0.001  48.661
 Approx polarizability: 173.313   0.005 140.138  -0.911  -0.003  70.301

 ******    1 imaginary frequencies (negative Signs) ******

                      1                      2                      3
                      A                      A                      A
 Frequencies --   -309.4546               124.4307               266.4162
 Red. masses --      1.1107                 7.7839                 8.2642
 Frc consts  --      0.0627                 0.0710                 0.3456
 IR Inten    --    123.4945                 1.5020                 0.3241

                      4                      5                      6
                      A                      A                      A
 Frequencies --    324.3257               379.1520               425.5139
 Red. masses --      5.7624                14.7012                 3.6293
 Frc consts  --      0.3571                 1.2452                 0.3872
 IR Inten    --      4.5591                 1.3620                 0.1277

                      7                      8                      9
                      A                      A                      A
 Frequencies --    429.3823               501.5403               643.4381
 Red. masses --      3.6298                 2.5957                 7.4297
 Frc consts  --      0.3943                 0.3847                 1.8123
 IR Inten    --      0.0014                27.6614                41.0476

                     10                     11                     12
                      A                      A                      A
 Frequencies --    644.3574               686.3167               827.0705
 Red. masses --      7.0857                 4.0405                 1.2420
 Frc consts  --      1.7334                 1.1213                 0.5005
 IR Inten    --      0.0129                 2.7901                 0.3526

                     13                     14                     15
                      A                      A                      A
 Frequencies --    833.6847               835.3263               951.1283
 Red. masses --      1.8784                 3.2316                 1.2734
 Frc consts  --      0.7692                 1.3286                 0.6787
 IR Inten    --     48.8781                15.6289                 1.3487

                     16                     17                     18
                      A                      A                      A
 Frequencies --    967.9879              1030.5914              1102.5973
 Red. masses --      1.3388                 3.5108                 3.0508
 Frc consts  --      0.7391                 2.1970                 2.1853
 IR Inten    --      0.0364                21.7068                52.4910

                     19                     20                     21
                      A                      A                      A
 Frequencies --   1130.9778              1183.9830              1204.3343
 Red. masses --      1.3212                 1.5971                 1.1939
 Frc consts  --      0.9957                 1.3191                 1.0203
 IR Inten    --      6.3665               179.9526                40.6709

                     22                     23                     24
                      A                      A                      A
 Frequencies --   1283.1944              1320.7856              1325.1941
 Red. masses --      2.1779                 1.6803                 3.5807
 Frc consts  --      2.1129                 1.7270                 3.7049
 IR Inten    --      6.2660                 0.8990                 0.0231

                     25                     26                     27
                      A                      A                      A
 Frequencies --   1437.5335              1532.3817              1624.6681
 Red. masses --      2.9140                 2.3858                 7.2235
 Frc consts  --      3.5480                 3.3009                11.2338
 IR Inten    --      1.4086               132.3098                 0.6319

                     28                     29                     30
                      A                      A                      A
 Frequencies --   1643.3720              3204.2584              3205.2225
 Red. masses --      5.7311                 1.0888                 1.0892
 Frc consts  --      9.1192                 6.5864                 6.5928
 IR Inten    --      3.6950                 7.8689                 1.3086

                     31                     32                     33
                      A                      A                      A
 Frequencies --   3220.5416              3222.0968              3741.7148
 Red. masses --      1.0946                 1.0952                 1.0668
 Frc consts  --      6.6891                 6.6990                 8.7996
 IR Inten    --      6.7865                 0.0505                70.2386

 - Thermochemistry -
 -------------------
 Temperature   298.150 Kelvin.  Pressure   1.00000 Atm.
 Atom     1 has atomic number  6 and mass  12.00000

 Molecular mass:   128.00289 amu.
 Principal axes and moments of inertia in atomic units:
                           1         2         3
     Eigenvalues --   321.432321879.940832195.93158
           X            0.99999   0.00001  -0.00547
           Y           -0.00001   1.00000  -0.00001
           Z            0.00547   0.00001   0.99999
 This molecule is an asymmetric top.
 Rotational symmetry number  1.
 Rotational temperatures (Kelvin)      0.26946     0.04607     0.03944
 Rotational constants (GHZ):           5.61468     0.96000     0.82186
    1 imaginary frequencies ignored.
 Zero-point vibrational energy     246750.8 (Joules/Mol)
                                   58.97487 (Kcal/Mol)
 Warning -- explicit consideration of   7 degrees of freedom as
           vibrations may cause significant error
 Vibrational temperatures:    179.03   383.31   466.63   545.52   612.22
          (Kelvin)            617.79   721.60   925.76   927.09   987.46
                             1189.97  1199.49  1201.85  1368.46  1392.72
                             1482.79  1586.39  1627.22  1703.49  1732.77
                             1846.23  1900.32  1906.66  2068.29  2204.76
                             2337.54  2364.45  4610.21  4611.60  4633.64
                             4635.88  5383.49

 Zero-point correction=                           0.093982 (Hartree/Particle)
 Thermal correction to Energy=                    0.100329
 Thermal correction to Enthalpy=                  0.101273
 Thermal correction to Gibbs Free Energy=         0.062906
 Sum of electronic and zero-point Energies=           -766.984574
 Sum of electronic and thermal Energies=              -766.978227
 Sum of electronic and thermal Enthalpies=            -766.977283
 Sum of electronic and thermal Free Energies=         -767.015650

                     E (Thermal)             CV                S
                      KCal/Mol        Cal/Mol-Kelvin    Cal/Mol-Kelvin
 Total                   62.958             24.195             80.751
 Electronic               0.000              0.000              0.000
 Translational            0.889              2.981             40.454
 Rotational               0.889              2.981             28.675
 Vibrational             61.180             18.233             11.622
 Vibration     1          0.610              1.929              3.030
 Vibration     2          0.672              1.735              1.619
 Vibration     3          0.709              1.627              1.288
 Vibration     4          0.749              1.515              1.043
 Vibration     5          0.787              1.415              0.873
 Vibration     6          0.791              1.406              0.861
 Vibration     7          0.857              1.247              0.654

                           ! Non-Optimized Parameters !
 Normal termination of Gaussian 16 at Tue Sep 19 06:53:00 2023.
