 Gaussian 16, Revision B.01,
 Gaussian 16:  EM64L-G16RevB.01 20-Dec-2017

 ----------------------------------------------------------------
 # opt freq b3lyp/6-31+g(d) nosymm empiricaldispersion=gd3 volume
 ----------------------------------------------------------------

 -----------
 molecule_26
 -----------
 Symbolic Z-matrix:
 Charge =  0 Multiplicity = 1

 SCF Done:  E(RB3LYP) =  -307.480785836     A.U. after   12 cycles
 SCF Done:  E(RB3LYP) =  -307.481285975     A.U. after   11 cycles
 SCF Done:  E(RB3LYP) =  -307.481318652     A.U. after   10 cycles
 SCF Done:  E(RB3LYP) =  -307.481321578     A.U. after    9 cycles
 Optimization completed.
    -- Stationary point found.
 Normal termination of Gaussian 16 at Fri Sep 15 03:54:18 2023.

 ---------------------------------------------------------------------
 #N Geom=AllCheck Guess=TCheck SCRF=Check GenChk RB3LYP/6-31+G(d) Freq
 ---------------------------------------------------------------------

 Structure from the checkpoint file:  "MOLECULE_26.chk"
 -----------
 molecule_26
 -----------
 Charge =  0 Multiplicity = 1

                          Input orientation:
 ---------------------------------------------------------------------
 Center     Atomic      Atomic             Coordinates (Angstroms)
 Number     Number       Type             X           Y           Z
 ---------------------------------------------------------------------
      1          6           0       -0.263421   -0.709277   -0.002472
      2          6           0        1.134635   -0.712861   -0.012640
      3          6           0        1.827934    0.500110   -0.029973
      4          6           0        1.134793    1.713194   -0.014210
      5          6           0       -0.263262    1.709807   -0.004041
      6          6           0       -0.965635    0.500312   -0.000291
      7          1           0       -0.803096   -1.652934    0.009359
      8          1           0        1.697158   -1.642159   -0.000918
      9          1           0        1.697438    2.642433   -0.003685
     10          1           0       -0.802816    2.653548    0.006569
     11          1           0       -2.052355    0.500391    0.009987
     12          8           0        3.220005    0.500043    0.017054
     13          1           0        3.580212    0.499570   -0.883068
 ---------------------------------------------------------------------

 SCF Done:  E(RB3LYP) =  -307.481321578     A.U. after    1 cycles

 Alpha  occ. eigenvalues --  -19.17807 -10.25363 -10.20301 -10.20297 -10.19909
 Alpha  occ. eigenvalues --  -10.19865 -10.19865  -1.05163  -0.85742  -0.75562
 Alpha  occ. eigenvalues --   -0.74529  -0.61839  -0.61423  -0.54985  -0.50308
 Alpha  occ. eigenvalues --   -0.46867  -0.45592  -0.43101  -0.42370  -0.37188
 Alpha  occ. eigenvalues --   -0.36523  -0.35881  -0.30505  -0.26156  -0.25043
 Alpha virt. eigenvalues --   -0.01899  -0.01341   0.00122   0.01102   0.02530
 Alpha virt. eigenvalues --    0.03771   0.04946   0.06433   0.07104   0.08055
 Alpha virt. eigenvalues --    0.08966   0.09141   0.10109   0.12614   0.12967

 Mulliken charges:
               1
     1  C   -0.236516
     2  C    0.187876
     3  C   -0.444894
     4  C    0.187914
     5  C   -0.236509
     6  C   -0.165052
     7  H    0.181382
     8  H    0.189259
     9  H    0.189257
    10  H    0.181382
    11  H    0.178327
    12  O   -0.706753
    13  H    0.494329
 Sum of Mulliken charges =   0.00000

 Dipole moment (field-independent basis, Debye):
    X=             -0.6146    Y=             -0.0007    Z=             -1.5355  Tot=              1.6540
 Quadrupole moment (field-independent basis, Debye-Ang):
   XX=            -40.3544   YY=            -37.3722   ZZ=            -43.5601
   XY=             -0.3105   XZ=             -6.3823   YZ=             -0.7720

  Exact polarizability:  88.285  -0.001  80.857  -1.728  -0.024  43.679
 Approx polarizability: 137.499  -0.002 129.868  -2.109  -0.044  61.993

 ******    1 imaginary frequencies (negative Signs) ******

                      1                      2                      3
                      A                      A                      A
 Frequencies --   -322.1323               228.8031               407.7255
 Red. masses --      1.1074                 4.1691                 4.7821
 Frc consts  --      0.0677                 0.1286                 0.4684
 IR Inten    --    122.1472                 4.3975                 0.0919

                      4                      5                      6
                      A                      A                      A
 Frequencies --    424.0621               495.2029               532.7878
 Red. masses --      3.0020                 2.7663                 7.2982
 Frc consts  --      0.3181                 0.3997                 1.2206
 IR Inten    --      0.0365                19.5675                 1.9845

                      7                      8                      9
                      A                      A                      A
 Frequencies --    628.9459               685.7526               755.1561
 Red. masses --      6.4579                 2.8914                 1.3325
 Frc consts  --      1.5051                 0.8011                 0.4477
 IR Inten    --      0.4322                16.5283                79.7846

                     10                     11                     12
                      A                      A                      A
 Frequencies --    824.3921               844.5537               913.2941
 Red. masses --      5.9783                 1.2419                 1.3443
 Frc consts  --      2.3938                 0.5219                 0.6607
 IR Inten    --     19.9840                 0.3729                 6.6659

                     13                     14                     15
                      A                      A                      A
 Frequencies --    973.9458               993.5882              1016.2079
 Red. masses --      1.3516                 1.2584                 6.2713
 Frc consts  --      0.7554                 0.7320                 3.8157
 IR Inten    --      0.0283                 0.1119                 0.1305

                     16                     17                     18
                      A                      A                      A
 Frequencies --   1046.7722              1099.9079              1181.7349
 Red. masses --      2.0769                 1.5176                 1.6097
 Frc consts  --      1.3409                 1.0817                 1.3245
 IR Inten    --      6.0156                 6.1336               169.2428

                     19                     20                     21
                      A                      A                      A
 Frequencies --   1195.2556              1201.5801              1277.3094
 Red. masses --      1.1132                 1.2012                 2.0638
 Frc consts  --      0.9370                 1.0218                 1.9839
 IR Inten    --      0.0730                33.7612                 4.1874

                     22                     23                     24
                      A                      A                      A
 Frequencies --   1327.1262              1354.6549              1489.9449
 Red. masses --      1.9986                 2.6491                 2.1863
 Frc consts  --      2.0739                 2.8642                 2.8595
 IR Inten    --      0.3888                 0.0030                 1.0627

                     25                     26                     27
                      A                      A                      A
 Frequencies --   1535.3389              1637.6647              1647.7523
 Red. masses --      2.3094                 5.9107                 5.5546
 Frc consts  --      3.2074                 9.3398                 8.8856
 IR Inten    --     51.5459                 4.8343                35.5876

                     28                     29                     30
                      A                      A                      A
 Frequencies --   3178.6847              3187.3553              3199.5790
 Red. masses --      1.0854                 1.0889                 1.0919
 Frc consts  --      6.4613                 6.5177                 6.5860
 IR Inten    --      0.7194                 8.2597                26.5957

                     31                     32                     33
                      A                      A                      A
 Frequencies --   3206.4740              3211.0850              3748.0003
 Red. masses --      1.0942                 1.0972                 1.0667
 Frc consts  --      6.6283                 6.6658                 8.8290
 IR Inten    --     22.2891                 2.5064                63.7007

 - Thermochemistry -
 -------------------
 Temperature   298.150 Kelvin.  Pressure   1.00000 Atm.
 Atom     1 has atomic number  6 and mass  12.00000

 Molecular mass:    94.04186 amu.
 Principal axes and moments of inertia in atomic units:
                           1         2         3
     Eigenvalues --   320.63225 699.603351014.78085
           X            0.99994   0.00006   0.01082
           Y           -0.00007   1.00000   0.00065
           Z           -0.01082  -0.00065   0.99994
 This molecule is an asymmetric top.
 Rotational symmetry number  1.
 Rotational temperatures (Kelvin)      0.27013     0.12380     0.08535
 Rotational constants (GHZ):           5.62870     2.57966     1.77845
    1 imaginary frequencies ignored.
 Zero-point vibrational energy     271855.2 (Joules/Mol)
                                   64.97495 (Kcal/Mol)
 Warning -- explicit consideration of   5 degrees of freedom as
           vibrations may cause significant error
 Vibrational temperatures:    329.20   586.63   610.13   712.49   766.56
          (Kelvin)            904.91   986.65  1086.50  1186.12  1215.12
                             1314.03  1401.29  1429.55  1462.10  1506.07
                             1582.52  1700.25  1719.71  1728.81  1837.76
                             1909.44  1949.05  2143.70  2209.01  2356.23
                             2370.75  4573.42  4585.89  4603.48  4613.40
                             4620.04  5392.54

 Zero-point correction=                           0.103544 (Hartree/Particle)
 Thermal correction to Energy=                    0.108723
 Thermal correction to Enthalpy=                  0.109667
 Thermal correction to Gibbs Free Energy=         0.074723
 Sum of electronic and zero-point Energies=           -307.377777
 Sum of electronic and thermal Energies=              -307.372599
 Sum of electronic and thermal Enthalpies=            -307.371655
 Sum of electronic and thermal Free Energies=         -307.406598

                     E (Thermal)             CV                S
                      KCal/Mol        Cal/Mol-Kelvin    Cal/Mol-Kelvin
 Total                   68.224             20.338             73.545
 Electronic               0.000              0.000              0.000
 Translational            0.889              2.981             39.535
 Rotational               0.889              2.981             26.923
 Vibrational             66.447             14.376              7.087
 Vibration     1          0.651              1.797              1.888
 Vibration     2          0.772              1.453              0.935
 Vibration     3          0.786              1.418              0.878
 Vibration     4          0.851              1.261              0.670
 Vibration     5          0.888              1.177              0.581

 Optimization completed.
    -- Stationary point found.
 Normal termination of Gaussian 16 at Fri Sep 15 03:54:49 2023.
