 Gaussian 16, Revision B.01,
 Gaussian 16:  EM64L-G16RevB.01 20-Dec-2017

 ----------------------------------------------------------------------
 # opt freq b3lyp/6-31+g(d) geom=connectivity empiricaldispersion=gd3 v
 olume
 ----------------------------------------------------------------------

 -------------------
 Title Card Required
 -------------------
 Symbolic Z-matrix:
 Charge =  0 Multiplicity = 1

 SCF Done:  E(RB3LYP) =  -408.293009726     A.U. after   12 cycles
 Optimization completed.
    -- Stationary point found.
 Normal termination of Gaussian 16 at Sun Sep 17 09:10:59 2023.

 ---------------------------------------------------------------------
 #N Geom=AllCheck Guess=TCheck SCRF=Check GenChk RB3LYP/6-31+G(d) Freq
 ---------------------------------------------------------------------

 Structure from the checkpoint file:  "MOLECULE_7.chk"
 -------------------
 Title Card Required
 -------------------
 Charge =  0 Multiplicity = 1

                         Standard orientation:
 ---------------------------------------------------------------------
 Center     Atomic      Atomic             Coordinates (Angstroms)
 Number     Number       Type             X           Y           Z
 ---------------------------------------------------------------------
      1          6           0        1.946762   -1.210997    0.000174
      2          6           0        0.550268   -1.207623    0.000156
      3          6           0       -0.172886   -0.000003    0.000007
      4          6           0        0.550262    1.207625   -0.000149
      5          6           0        1.946752    1.211000   -0.000177
      6          6           0        2.647222    0.000002   -0.000003
      7          1           0        2.489209   -2.153538    0.000296
      8          1           0        0.007328   -2.149237    0.000266
      9          1           0        0.007318    2.149235   -0.000261
     10          1           0        2.489201    2.153541   -0.000303
     11          1           0        3.734833    0.000008   -0.000005
     12          5           0       -1.733636   -0.000003    0.000013
     13          8           0       -2.385362    1.214631    0.000346
     14          1           0       -3.352142    1.184806    0.000142
     15          8           0       -2.385353   -1.214624   -0.000365
     16          1           0       -3.352130   -1.184878   -0.000099
 ---------------------------------------------------------------------

 SCF Done:  E(RB3LYP) =  -408.293009726     A.U. after    1 cycles

 The electronic state is 1-A.
 Alpha  occ. eigenvalues --  -19.17910 -19.17909 -10.19560 -10.19118 -10.19115
 Alpha  occ. eigenvalues --  -10.19045 -10.19044 -10.17371  -6.79913  -1.05230
 Alpha  occ. eigenvalues --   -1.01894  -0.84871  -0.74339  -0.74244  -0.61430
 Alpha  occ. eigenvalues --   -0.60369  -0.56989  -0.55545  -0.51028  -0.45208
 Alpha  occ. eigenvalues --   -0.44131  -0.43891  -0.41792  -0.40257  -0.39478
 Alpha  occ. eigenvalues --   -0.35928  -0.35598  -0.33683  -0.33671  -0.32692
 Alpha  occ. eigenvalues --   -0.25218  -0.25034
 Alpha virt. eigenvalues --   -0.03241  -0.03044  -0.00664   0.01187   0.01771
 Alpha virt. eigenvalues --    0.03376   0.03611   0.03794   0.05521   0.07375
 Alpha virt. eigenvalues --    0.07916   0.08110   0.08280   0.09790   0.11076

 Mulliken charges:
               1
     1  C   -0.105224
     2  C   -0.165969
     3  C   -0.429328
     4  C   -0.165994
     5  C   -0.105226
     6  C   -0.197541
     7  H    0.176507
     8  H    0.196449
     9  H    0.196450
    10  H    0.176506
    11  H    0.176887
    12  B    0.846456
    13  O   -0.790744
    14  H    0.490757
    15  O   -0.790754
    16  H    0.490769
 Sum of Mulliken charges =   0.00000

 Dipole moment (field-independent basis, Debye):
    X=             -2.3509    Y=             -0.0002    Z=              0.0001  Tot=              2.3509
 Quadrupole moment (field-independent basis, Debye-Ang):
   XX=            -32.8118   YY=            -52.9374   ZZ=            -56.7291
   XY=              0.0007   XZ=             -0.0005   YZ=             -0.0033

  Exact polarizability: 117.402   0.000  95.667   0.000  -0.003  52.150
 Approx polarizability: 168.825   0.000 154.287   0.000  -0.007  74.755

                      1                      2                      3
                      A                      A                      A
 Frequencies --     60.6510               143.7406               173.0033
 Red. masses --      6.2801                 4.0546                 4.9355
 Frc consts  --      0.0136                 0.0494                 0.0870
 IR Inten    --      0.0000                 8.5049                 4.4131

                      4                      5                      6
                      A                      A                      A
 Frequencies --    338.7246               388.1838               419.8000
 Red. masses --      6.4604                 1.2254                 2.6694
 Frc consts  --      0.4367                 0.1088                 0.2772
 IR Inten    --      5.9161                 0.0001                33.8943

                      7                      8                      9
                      A                      A                      A
 Frequencies --    420.0499               425.5653               544.2252
 Red. masses --      2.0576                 6.7459                 1.3137
 Frc consts  --      0.2139                 0.7198                 0.2292
 IR Inten    --      0.0190                 5.2805               185.9776

                     10                     11                     12
                      A                      A                      A
 Frequencies --    551.8718               633.0486               658.7778
 Red. masses --      3.5605                 6.4489                 5.2179
 Frc consts  --      0.6389                 1.5227                 1.3342
 IR Inten    --     46.9339                 0.0436                94.3996

                     13                     14                     15
                      A                      A                      A
 Frequencies --    712.3770               734.1328               782.5549
 Red. masses --      1.6438                 5.2782                 2.1480
 Frc consts  --      0.4915                 1.6760                 0.7750
 IR Inten    --     54.5594                 1.0053                14.4193

                     16                     17                     18
                      A                      A                      A
 Frequencies --    873.2769               918.6024               953.4419
 Red. masses --      1.2471                 1.1057                 1.3820
 Frc consts  --      0.5603                 0.5497                 0.7402
 IR Inten    --      0.0000               170.5711                 1.5533

                     19                     20                     21
                      A                      A                      A
 Frequencies --    996.9099               998.2547              1011.3533
 Red. masses --      2.6980                 1.3778                 1.2870
 Frc consts  --      1.5798                 0.8090                 0.7756
 IR Inten    --    170.6762                 0.0006                 0.0654

                     22                     23                     24
                      A                      A                      A
 Frequencies --   1014.5908              1054.6708              1106.1335
 Red. masses --      6.2349                 2.4036                 1.6980
 Frc consts  --      3.7815                 1.5753                 1.2241
 IR Inten    --      0.5370                 0.2987                 9.3681

                     25                     26                     27
                      A                      A                      A
 Frequencies --   1124.1842              1199.4387              1224.5971
 Red. masses --      2.0886                 1.1145                 1.1536
 Frc consts  --      1.5552                 0.9447                 1.0193
 IR Inten    --      3.6437                 0.3097                 2.1958

                     28                     29                     30
                      A                      A                      A
 Frequencies --   1326.5829              1369.6427              1373.8804
 Red. masses --      3.8886                 1.6276                 3.5425
 Frc consts  --      4.0320                 1.7989                 3.9396
 IR Inten    --     56.1017                 1.7556               330.2555

                     31                     32                     33
                      A                      A                      A
 Frequencies --   1375.2367              1479.4773              1539.9890
 Red. masses --      6.8060                 2.1868                 2.2171
 Frc consts  --      7.5840                 2.8201                 3.0979
 IR Inten    --    287.7269                42.4380                 5.5426

                     34                     35                     36
                      A                      A                      A
 Frequencies --   1623.7264              1654.7747              3170.7828
 Red. masses --      4.9534                 5.2156                 1.0852
 Frc consts  --      7.6945                 8.4146                 6.4281
 IR Inten    --      3.0572                25.7787                 0.0066

                     37                     38                     39
                      A                      A                      A
 Frequencies --   3180.8400              3191.9227              3200.0919
 Red. masses --      1.0881                 1.0918                 1.0933
 Frc consts  --      6.4866                 6.5536                 6.5962
 IR Inten    --      7.8543                22.7844                35.2766

                     40                     41                     42
                      A                      A                      A
 Frequencies --   3204.6661              3790.2613              3793.8773
 Red. masses --      1.0969                 1.0673                 1.0656
 Frc consts  --      6.6372                 9.0341                 9.0366
 IR Inten    --      9.9395                10.7350                64.9095

 - Thermochemistry -
 -------------------
 Temperature   298.150 Kelvin.  Pressure   1.00000 Atm.
 Atom     1 has atomic number  6 and mass  12.00000

 Molecular mass:   122.05391 amu.
 Principal axes and moments of inertia in atomic units:
                           1         2         3
     Eigenvalues --   495.951741595.790622091.74232
           X            1.00000   0.00000   0.00000
           Y            0.00000   1.00000  -0.00002
           Z            0.00000   0.00002   1.00000
 This molecule is an asymmetric top.
 Rotational symmetry number  1.
 Warning -- assumption of classical behavior for rotation
           may cause significant error
 Rotational temperatures (Kelvin)      0.17464     0.05428     0.04141
 Rotational constants (GHZ):           3.63895     1.13094     0.86279
 Zero-point vibrational energy     327405.4 (Joules/Mol)
                                   78.25178 (Kcal/Mol)
 Warning -- explicit consideration of  10 degrees of freedom as
           vibrations may cause significant error
 Vibrational temperatures:     87.26   206.81   248.91   487.35   558.51
          (Kelvin)            604.00   604.36   612.29   783.02   794.02
                              910.82   947.83  1024.95  1056.25  1125.92
                             1256.45  1321.66  1371.79  1434.33  1436.27
                             1455.11  1459.77  1517.44  1591.48  1617.45
                             1725.72  1761.92  1908.66  1970.61  1976.71
                             1978.66  2128.64  2215.70  2336.18  2380.85
                             4562.05  4576.52  4592.46  4604.22  4610.80
                             5453.34  5458.54

 Zero-point correction=                           0.124702 (Hartree/Particle)
 Thermal correction to Energy=                    0.132570
 Thermal correction to Enthalpy=                  0.133515
 Thermal correction to Gibbs Free Energy=         0.091954
 Sum of electronic and zero-point Energies=           -408.168308
 Sum of electronic and thermal Energies=              -408.160439
 Sum of electronic and thermal Enthalpies=            -408.159495
 Sum of electronic and thermal Free Energies=         -408.201055

                     E (Thermal)             CV                S
                      KCal/Mol        Cal/Mol-Kelvin    Cal/Mol-Kelvin
 Total                   83.189             30.395             87.471
 Electronic               0.000              0.000              0.000
 Translational            0.889              2.981             40.312
 Rotational               0.889              2.981             28.894
 Vibrational             81.412             24.433             18.264
 Vibration     1          0.597              1.973              4.436
 Vibration     2          0.616              1.909              2.753
 Vibration     3          0.627              1.876              2.403
 Vibration     4          0.719              1.598              1.218
 Vibration     5          0.756              1.495              1.007
 Vibration     6          0.782              1.427              0.893
 Vibration     7          0.783              1.427              0.892
 Vibration     8          0.787              1.415              0.873
 Vibration     9          0.899              1.152              0.556
 Vibration    10          0.907              1.136              0.540

 Optimization completed.
    -- Stationary point found.
 Normal termination of Gaussian 16 at Sun Sep 17 09:11:55 2023.
