 Gaussian 16, Revision B.01,
 Gaussian 16:  EM64L-G16RevB.01 20-Dec-2017

 ----------------------------------------------------------------------
 # opt freq b3lyp/6-31+g(d) geom=connectivity empiricaldispersion=gd3 v
 olume
 ----------------------------------------------------------------------

 -------------------
 Title Card Required
 -------------------
 Symbolic Z-matrix:
 Charge =  0 Multiplicity = 1

 SCF Done:  E(RB3LYP) =  -522.825474257     A.U. after   15 cycles
 Optimization completed.
    -- Stationary point found.
 Normal termination of Gaussian 16 at Sun Sep 17 09:12:12 2023.

 ---------------------------------------------------------------------
 #N Geom=AllCheck Guess=TCheck SCRF=Check GenChk RB3LYP/6-31+G(d) Freq
 ---------------------------------------------------------------------

 Structure from the checkpoint file:  "MOLECULE_8.chk"
 -------------------
 Title Card Required
 -------------------
 Charge =  0 Multiplicity = 1

                         Standard orientation:
 ---------------------------------------------------------------------
 Center     Atomic      Atomic             Coordinates (Angstroms)
 Number     Number       Type             X           Y           Z
 ---------------------------------------------------------------------
      1          6           0       -0.915788    1.425307   -0.000007
      2          6           0        0.466481    1.291121   -0.000018
      3          6           0        1.086454    0.023112    0.000005
      4          6           0        0.249807   -1.104301    0.000004
      5          6           0       -1.143483   -0.993313   -0.000033
      6          6           0       -1.729925    0.280542   -0.000002
      7          1           0       -1.393122    2.400986   -0.000042
      8          1           0        1.087146    2.183287   -0.000028
      9          1           0        0.697052   -2.095046    0.000008
     10          1           0       -1.751326   -1.891323   -0.000077
     11          5           0        2.634454   -0.120149    0.000002
     12          8           0        3.176630   -1.389928    0.000000
     13          1           0        4.142223   -1.443893   -0.000143
     14          8           0        3.397647    1.029974    0.000030
     15          1           0        4.357212    0.909382    0.000114
     16          8           0       -3.075774    0.512935   -0.000040
     17          6           0       -3.960871   -0.600522    0.000054
     18          1           0       -3.823862   -1.219805    0.896784
     19          1           0       -4.967596   -0.178649    0.000204
     20          1           0       -3.824069   -1.219720   -0.896769
 ---------------------------------------------------------------------

 SCF Done:  E(RB3LYP) =  -522.825474257     A.U. after    1 cycles

 The electronic state is 1-A.
 Alpha  occ. eigenvalues --  -19.18814 -19.17456 -19.17443 -10.25380 -10.24542
 Alpha  occ. eigenvalues --  -10.19214 -10.18996 -10.18978 -10.18473 -10.16561
 Alpha  occ. eigenvalues --   -6.79375  -1.07074  -1.04752  -1.01408  -0.84733
 Alpha  occ. eigenvalues --   -0.75700  -0.74405  -0.69768  -0.61107  -0.60179
 Alpha  occ. eigenvalues --   -0.56691  -0.55322  -0.53400  -0.47684  -0.47295
 Alpha  occ. eigenvalues --   -0.46500  -0.44809  -0.42655  -0.41682  -0.41168
 Alpha  occ. eigenvalues --   -0.39841  -0.37610  -0.36060  -0.34968  -0.33534
 Alpha  occ. eigenvalues --   -0.33231  -0.32526  -0.31987  -0.25132  -0.22381
 Alpha virt. eigenvalues --   -0.02807  -0.02093  -0.00578   0.00589   0.01919
 Alpha virt. eigenvalues --    0.02471   0.03114   0.03443   0.04717   0.05259
 Alpha virt. eigenvalues --    0.05308   0.06617   0.08536   0.08695   0.09707

 Mulliken charges:
               1
     1  C   -0.300465
     2  C   -0.151333
     3  C   -0.453287
     4  C   -0.911051
     5  C    0.774300
     6  C    0.091296
     7  H    0.187947
     8  H    0.197927
     9  H    0.196725
    10  H    0.172780
    11  B    0.857499
    12  O   -0.786915
    13  H    0.490660
    14  O   -0.795653
    15  H    0.490242
    16  O   -0.378424
    17  C   -0.298960
    18  H    0.204596
    19  H    0.207516
    20  H    0.204599
 Sum of Mulliken charges =   0.00000

 Dipole moment (field-independent basis, Debye):
    X=              1.4212    Y=             -1.4460    Z=              0.0000  Tot=              2.0275
 Quadrupole moment (field-independent basis, Debye-Ang):
   XX=            -37.1159   YY=            -65.1079   ZZ=            -68.2499
   XY=              3.2021   XZ=             -0.0010   YZ=              0.0005

  Exact polarizability: 155.070   1.601 106.407   0.000   0.000  63.988
 Approx polarizability: 210.320  -1.603 171.761   0.000   0.000  92.989

                      1                      2                      3
                      A                      A                      A
 Frequencies --     58.9431                73.5940               122.8156
 Red. masses --      5.4278                 3.9914                 4.3418
 Frc consts  --      0.0111                 0.0127                 0.0386
 IR Inten    --      2.2014                 3.7844                 0.0426

                      4                      5                      6
                      A                      A                      A
 Frequencies --    139.7465               243.1308               258.5659
 Red. masses --      5.1015                 1.5316                 3.7148
 Frc consts  --      0.0587                 0.0533                 0.1463
 IR Inten    --      4.2657                 5.0169                 3.6638

                      7                      8                      9
                      A                      A                      A
 Frequencies --    302.9325               310.3089               376.4313
 Red. masses --      2.0397                 6.7769                 1.1073
 Frc consts  --      0.1103                 0.3845                 0.0924
 IR Inten    --     10.4333                 0.8085                 0.0012

                     10                     11                     12
                      A                      A                      A
 Frequencies --    424.1532               428.7168               480.6179
 Red. masses --      6.1606                 2.5819                 4.1666
 Frc consts  --      0.6530                 0.2796                 0.5671
 IR Inten    --      5.3354                 0.2112                17.3709

                     13                     14                     15
                      A                      A                      A
 Frequencies --    497.0850               543.1727               546.5537
 Red. masses --      1.7887                 3.7904                 1.6086
 Frc consts  --      0.2604                 0.6589                 0.2831
 IR Inten    --    128.3846                54.8154                87.9150

                     16                     17                     18
                      A                      A                      A
 Frequencies --    645.5939               653.9473               673.1358
 Red. masses --      6.9146                 4.7657                 4.5030
 Frc consts  --      1.6980                 1.2008                 1.2022
 IR Inten    --      1.8444                86.8160                 0.6876

                     19                     20                     21
                      A                      A                      A
 Frequencies --    746.1214               818.0761               828.7619
 Red. masses --      4.5716                 5.8398                 1.3199
 Frc consts  --      1.4995                 2.3027                 0.5341
 IR Inten    --      7.4299                 7.1895                11.6786

                     22                     23                     24
                      A                      A                      A
 Frequencies --    852.8662               919.5752               973.7881
 Red. masses --      1.5865                 1.1057                 1.3180
 Frc consts  --      0.6799                 0.5509                 0.7364
 IR Inten    --     41.4095               165.4247                 0.2887

                     25                     26                     27
                      A                      A                      A
 Frequencies --    992.5133               994.6159              1033.3128
 Red. masses --      1.3343                 2.7915                 2.7727
 Frc consts  --      0.7744                 1.6270                 1.7443
 IR Inten    --      0.0000               216.9191                13.1971

                     28                     29                     30
                      A                      A                      A
 Frequencies --   1065.6095              1126.2690              1146.9669
 Red. masses --      6.1712                 2.2219                 1.4225
 Frc consts  --      4.1288                 1.6605                 1.1026
 IR Inten    --     39.8771                15.2672                13.3671

                     31                     32                     33
                      A                      A                      A
 Frequencies --   1180.3218              1214.1538              1221.7984
 Red. masses --      1.2705                 1.3790                 1.2195
 Frc consts  --      1.0429                 1.1977                 1.0725
 IR Inten    --      0.9957                 4.6903                98.0399

                     34                     35                     36
                      A                      A                      A
 Frequencies --   1291.7077              1329.3449              1349.5738
 Red. masses --      4.1987                 4.3791                 1.4723
 Frc consts  --      4.1276                 4.5595                 1.5799
 IR Inten    --    293.0530                95.5821                34.2270

                     37                     38                     39
                      A                      A                      A
 Frequencies --   1373.8582              1378.2698              1452.3816
 Red. masses --      8.1467                 3.5315                 2.9108
 Frc consts  --      9.0598                 3.9525                 3.6177
 IR Inten    --    243.5722               419.9824                27.8315

                     40                     41                     42
                      A                      A                      A
 Frequencies --   1493.2287              1518.2027              1526.8387
 Red. masses --      1.1787                 1.0461                 1.0571
 Frc consts  --      1.5485                 1.4206                 1.4520
 IR Inten    --      4.7258                 7.7876                26.7063

                     43                     44                     45
                      A                      A                      A
 Frequencies --   1560.2983              1611.6049              1656.9832
 Red. masses --      2.5107                 6.2525                 5.3874
 Frc consts  --      3.6013                 9.5680                 8.7149
 IR Inten    --     22.3899                29.8058               212.1364

                     46                     47                     48
                      A                      A                      A
 Frequencies --   3021.2294              3081.9539              3153.8747
 Red. masses --      1.0342                 1.1068                 1.0999
 Frc consts  --      5.5620                 6.1939                 6.4460
 IR Inten    --     61.4514                40.6881                24.6899

                     49                     50                     51
                      A                      A                      A
 Frequencies --   3191.2046              3192.0216              3209.1300
 Red. masses --      1.0885                 1.0878                 1.0945
 Frc consts  --      6.5308                 6.5304                 6.6408
 IR Inten    --      7.6015                 4.0162                12.0837

                     52                     53                     54
                      A                      A                      A
 Frequencies --   3219.1235              3791.6260              3795.0864
 Red. masses --      1.0921                 1.0673                 1.0656
 Frc consts  --      6.6678                 9.0407                 9.0422
 IR Inten    --     13.2356                10.2472                66.4587

 - Thermochemistry -
 -------------------
 Temperature   298.150 Kelvin.  Pressure   1.00000 Atm.
 Atom     1 has atomic number  6 and mass  12.00000

 Molecular mass:   152.06447 amu.
 Principal axes and moments of inertia in atomic units:
                           1         2         3
     Eigenvalues --   551.542043356.920133896.88476
           X            0.99993   0.01202   0.00000
           Y           -0.01202   0.99993   0.00000
           Z            0.00000   0.00000   1.00000
 This molecule is an asymmetric top.
 Rotational symmetry number  1.
 Warning -- assumption of classical behavior for rotation
           may cause significant error
 Rotational temperatures (Kelvin)      0.15704     0.02580     0.02223
 Rotational constants (GHZ):           3.27217     0.53762     0.46312
 Zero-point vibrational energy     413260.4 (Joules/Mol)
                                   98.77160 (Kcal/Mol)
 Warning -- explicit consideration of  15 degrees of freedom as
           vibrations may cause significant error
 Vibrational temperatures:     84.81   105.89   176.70   201.06   349.81
          (Kelvin)            372.02   435.85   446.47   541.60   610.26
                              616.83   691.50   715.19   781.50   786.37
                              928.87   940.88   968.49  1073.50  1177.03
                             1192.40  1227.08  1323.06  1401.06  1428.01
                             1431.03  1486.71  1533.17  1620.45  1650.23
                             1698.22  1746.90  1757.90  1858.48  1912.63
                             1941.74  1976.68  1983.02  2089.65  2148.42
                             2184.36  2196.78  2244.92  2318.74  2384.03
                             4346.88  4434.24  4537.72  4591.43  4592.61
                             4617.22  4631.60  5455.30  5460.28

 Zero-point correction=                           0.157403 (Hartree/Particle)
 Thermal correction to Energy=                    0.167832
 Thermal correction to Enthalpy=                  0.168776
 Thermal correction to Gibbs Free Energy=         0.121214
 Sum of electronic and zero-point Energies=           -522.668072
 Sum of electronic and thermal Energies=              -522.657642
 Sum of electronic and thermal Enthalpies=            -522.656698
 Sum of electronic and thermal Free Energies=         -522.704260

                     E (Thermal)             CV                S
                      KCal/Mol        Cal/Mol-Kelvin    Cal/Mol-Kelvin
 Total                  105.316             39.570            100.103
 Electronic               0.000              0.000              0.000
 Translational            0.889              2.981             40.967
 Rotational               0.889              2.981             30.357
 Vibrational            103.539             33.608             28.778
 Vibration     1          0.596              1.974              4.492
 Vibration     2          0.599              1.966              4.055
 Vibration     3          0.610              1.930              3.056
 Vibration     4          0.615              1.914              2.807
 Vibration     5          0.659              1.774              1.780
 Vibration     6          0.667              1.748              1.671
 Vibration     7          0.694              1.668              1.401
 Vibration     8          0.699              1.654              1.361
 Vibration     9          0.747              1.520              1.053
 Vibration    10          0.786              1.418              0.878
 Vibration    11          0.790              1.408              0.863
 Vibration    12          0.837              1.293              0.708
 Vibration    13          0.853              1.256              0.665
 Vibration    14          0.898              1.155              0.559
 Vibration    15          0.902              1.147              0.551

 Optimization completed.
    -- Stationary point found.
 Normal termination of Gaussian 16 at Sun Sep 17 09:13:53 2023.
