 Gaussian 16, Revision B.01,
 Gaussian 16:  EM64L-G16RevB.01 20-Dec-2017

 ----------------------------------------------------------------
 # opt freq b3lyp/6-31+g(d) nosymm empiricaldispersion=gd3 volume
 ----------------------------------------------------------------

 -----------
 molecule_29
 -----------
 Symbolic Z-matrix:
 Charge =  0 Multiplicity = 1

 SCF Done:  E(RB3LYP) =  -346.801550840     A.U. after   13 cycles
 SCF Done:  E(RB3LYP) =  -346.802063274     A.U. after   11 cycles
 SCF Done:  E(RB3LYP) =  -346.802097015     A.U. after   10 cycles
 SCF Done:  E(RB3LYP) =  -346.802100033     A.U. after    9 cycles
 Optimization completed.
    -- Stationary point found.
 Normal termination of Gaussian 16 at Fri Sep 15 03:58:10 2023.

 ---------------------------------------------------------------------
 #N Geom=AllCheck Guess=TCheck SCRF=Check GenChk RB3LYP/6-31+G(d) Freq
 ---------------------------------------------------------------------

 Structure from the checkpoint file:  "MOLECULE_29.chk"
 -----------
 molecule_29
 -----------
 Charge =  0 Multiplicity = 1

                          Input orientation:
 ---------------------------------------------------------------------
 Center     Atomic      Atomic             Coordinates (Angstroms)
 Number     Number       Type             X           Y           Z
 ---------------------------------------------------------------------
      1          6           0       -0.256299   -0.701852    0.007056
      2          6           0        1.140823   -0.708693   -0.012502
      3          6           0        1.838992    0.500104   -0.035783
      4          6           0        1.140881    1.708993   -0.014107
      5          6           0       -0.256217    1.702259    0.005459
      6          6           0       -0.978896    0.500218    0.012491
      7          1           0       -0.792359   -1.648698    0.026390
      8          1           0        1.697647   -1.641558    0.000144
      9          1           0        1.697769    2.641836   -0.002697
     10          1           0       -0.792236    2.649158    0.023546
     11          8           0        3.232086    0.500102    0.006395
     12          1           0        3.587917    0.499552   -0.895410
     13          6           0       -2.491125    0.500352   -0.000908
     14          1           0       -2.897107    1.385485    0.501731
     15          1           0       -2.877566    0.502284   -1.029307
     16          1           0       -2.897246   -0.386524    0.498511
 ---------------------------------------------------------------------

 SCF Done:  E(RB3LYP) =  -346.802100033     A.U. after    1 cycles

 Alpha  occ. eigenvalues --  -19.17506 -10.24835 -10.20433 -10.19716 -10.19713
 Alpha  occ. eigenvalues --  -10.19549 -10.19549 -10.19001  -1.04805  -0.85860
 Alpha  occ. eigenvalues --   -0.77109  -0.75211  -0.68653  -0.61802  -0.59499
 Alpha  occ. eigenvalues --   -0.54620  -0.47812  -0.47735  -0.45243  -0.42697
 Alpha  occ. eigenvalues --   -0.42585  -0.41290  -0.39693  -0.36226  -0.35480
 Alpha  occ. eigenvalues --   -0.34730  -0.30178  -0.25840  -0.23968
 Alpha virt. eigenvalues --   -0.01739  -0.01069   0.00199   0.00933   0.02421
 Alpha virt. eigenvalues --    0.02765   0.05027   0.05244   0.06158   0.06730
 Alpha virt. eigenvalues --    0.07920   0.07939   0.08800   0.09474   0.11574

 Mulliken charges:
               1
     1  C   -0.532669
     2  C    0.367590
     3  C   -0.581988
     4  C    0.368509
     5  C   -0.528383
     6  C    0.621902
     7  H    0.175673
     8  H    0.188384
     9  H    0.188384
    10  H    0.175687
    11  O   -0.702931
    12  H    0.493785
    13  C   -0.874583
    14  H    0.207991
    15  H    0.224747
    16  H    0.207903
 Sum of Mulliken charges =   0.00000

 Dipole moment (field-independent basis, Debye):
    X=             -1.0265    Y=             -0.0005    Z=             -1.5598  Tot=              1.8673
 Quadrupole moment (field-independent basis, Debye-Ang):
   XX=            -47.0688   YY=            -44.3517   ZZ=            -49.7502
   XY=             -0.5178   XZ=             -6.3093   YZ=             -0.7837

  Exact polarizability: 109.205  -0.007  89.505  -1.604  -0.025  52.589
 Approx polarizability: 157.739  -0.011 145.346  -1.891  -0.046  76.293

 ******    1 imaginary frequencies (negative Signs) ******

                      1                      2                      3
                      A                      A                      A
 Frequencies --   -309.5166                22.2577               142.5923
 Red. masses --      1.1070                 1.0367                 3.8615
 Frc consts  --      0.0625                 0.0003                 0.0463
 IR Inten    --    120.4301                 0.1417                 2.2084

                      4                      5                      6
                      A                      A                      A
 Frequencies --    315.1642               326.2730               424.3960
 Red. masses --      3.1724                 3.9600                 3.1159
 Frc consts  --      0.1857                 0.2484                 0.3307
 IR Inten    --      0.0928                 5.0824                 0.1834

                      7                      8                      9
                      A                      A                      A
 Frequencies --    433.6982               465.5609               503.2180
 Red. masses --      3.5811                 6.0573                 2.4340
 Frc consts  --      0.3969                 0.7735                 0.3631
 IR Inten    --      0.1741                 1.6492                27.8649

                     10                     11                     12
                      A                      A                      A
 Frequencies --    654.3961               692.7853               745.4153
 Red. masses --      6.8327                 3.4989                 4.5476
 Frc consts  --      1.7239                 0.9894                 1.4888
 IR Inten    --      0.1039                 2.4414                10.4836

                     13                     14                     15
                      A                      A                      A
 Frequencies --    825.4117               839.6690               850.9934
 Red. masses --      1.3771                 1.2439                 6.1528
 Frc consts  --      0.5528                 0.5167                 2.6253
 IR Inten    --     56.6972                 0.5354                 9.2833

                     16                     17                     18
                      A                      A                      A
 Frequencies --    951.9255               969.5876              1020.4121
 Red. masses --      1.2572                 1.3464                 1.3960
 Frc consts  --      0.6712                 0.7458                 0.8564
 IR Inten    --      0.9652                 0.0395                 0.0177

                     19                     20                     21
                      A                      A                      A
 Frequencies --   1036.6207              1071.7008              1140.5484
 Red. masses --      2.7240                 1.5051                 1.2915
 Frc consts  --      1.7246                 1.0185                 0.9899
 IR Inten    --      3.2853                 7.4895                 7.0918

                     22                     23                     24
                      A                      A                      A
 Frequencies --   1183.2877              1208.4542              1234.5545
 Red. masses --      1.6609                 1.2490                 2.6642
 Frc consts  --      1.3702                 1.0746                 2.3924
 IR Inten    --    181.5675                28.2633                 2.4608

                     25                     26                     27
                      A                      A                      A
 Frequencies --   1280.5594              1327.5307              1341.8350
 Red. masses --      2.1717                 2.2347                 2.3015
 Frc consts  --      2.0982                 2.3204                 2.4415
 IR Inten    --      6.2803                 0.4353                 0.1621

                     28                     29                     30
                      A                      A                      A
 Frequencies --   1440.0667              1446.1015              1513.5268
 Red. masses --      1.2337                 2.6022                 1.0506
 Frc consts  --      1.5074                 3.2061                 1.4180
 IR Inten    --      0.4139                 0.0214                 7.6403

                     31                     32                     33
                      A                      A                      A
 Frequencies --   1514.8802              1555.2609              1627.3378
 Red. masses --      1.0948                 2.5731                 6.0734
 Frc consts  --      1.4803                 3.6671                 9.4763
 IR Inten    --      8.0941                82.8635                 3.5551

                     34                     35                     36
                      A                      A                      A
 Frequencies --   1660.9132              3032.9058              3088.1191
 Red. masses --      5.7624                 1.0403                 1.0958
 Frc consts  --      9.3659                 5.6379                 6.1571
 IR Inten    --      8.5103                36.5844                20.8706

                     37                     38                     39
                      A                      A                      A
 Frequencies --   3113.0586              3172.5028              3173.1472
 Red. masses --      1.1025                 1.0889                 1.0886
 Frc consts  --      6.2951                 6.4571                 6.4581
 IR Inten    --     18.1244                16.3378                17.8500

                     40                     41                     42
                      A                      A                      A
 Frequencies --   3202.6212              3204.1207              3746.7424
 Red. masses --      1.0932                 1.0937                 1.0668
 Frc consts  --      6.6065                 6.6156                 8.8232
 IR Inten    --     19.0131                 3.4132                61.8177

 - Thermochemistry -
 -------------------
 Temperature   298.150 Kelvin.  Pressure   1.00000 Atm.
 Atom     1 has atomic number  6 and mass  12.00000

 Molecular mass:   108.05751 amu.
 Principal axes and moments of inertia in atomic units:
                           1         2         3
     Eigenvalues --   329.387041253.325451565.91336
           X            0.99995   0.00005   0.01047
           Y           -0.00005   1.00000   0.00066
           Z           -0.01047  -0.00066   0.99995
 This molecule is an asymmetric top.
 Rotational symmetry number  1.
 Rotational temperatures (Kelvin)      0.26295     0.06911     0.05531
 Rotational constants (GHZ):           5.47909     1.43996     1.15252
    1 imaginary frequencies ignored.
 Zero-point vibrational energy     343927.3 (Joules/Mol)
                                   82.20059 (Kcal/Mol)
 Warning -- explicit consideration of   8 degrees of freedom as
           vibrations may cause significant error
 Vibrational temperatures:     32.02   205.16   453.45   469.43   610.61
          (Kelvin)            623.99   669.84   724.02   941.53   996.76
                             1072.49  1187.58  1208.10  1224.39  1369.61
                             1395.02  1468.15  1491.47  1541.94  1640.99
                             1702.49  1738.70  1776.25  1842.44  1910.02
                             1930.60  2071.93  2080.62  2177.63  2179.57
                             2237.67  2341.38  2389.68  4363.68  4443.11
                             4479.00  4564.52  4565.45  4607.86  4610.02
                             5390.73

 Zero-point correction=                           0.130995 (Hartree/Particle)
 Thermal correction to Energy=                    0.138065
 Thermal correction to Enthalpy=                  0.139009
 Thermal correction to Gibbs Free Energy=         0.098581
 Sum of electronic and zero-point Energies=           -346.671105
 Sum of electronic and thermal Energies=              -346.664035
 Sum of electronic and thermal Enthalpies=            -346.663091
 Sum of electronic and thermal Free Energies=         -346.703519

                     E (Thermal)             CV                S
                      KCal/Mol        Cal/Mol-Kelvin    Cal/Mol-Kelvin
 Total                   86.637             26.372             85.088
 Electronic               0.000              0.000              0.000
 Translational            0.889              2.981             39.949
 Rotational               0.889              2.981             27.960
 Vibrational             84.860             20.411             17.179
 Vibration     1          0.593              1.985              6.422
 Vibration     2          0.616              1.911              2.769
 Vibration     3          0.703              1.645              1.335
 Vibration     4          0.710              1.623              1.278
 Vibration     5          0.786              1.417              0.877
 Vibration     6          0.794              1.397              0.847
 Vibration     7          0.823              1.326              0.750
 Vibration     8          0.859              1.243              0.650

                           ! Non-Optimized Parameters !
 Normal termination of Gaussian 16 at Fri Sep 15 03:58:59 2023.
