 Gaussian 16, Revision B.01,
 Gaussian 16:  EM64L-G16RevB.01 20-Dec-2017

 ----------------------------------------------------------------
 # opt freq b3lyp/6-31+g(d) nosymm empiricaldispersion=gd3 volume
 ----------------------------------------------------------------

 ----------
 molecule_9
 ----------
 Symbolic Z-matrix:
 Charge =  0 Multiplicity = 1

 SCF Done:  E(RB3LYP) =  -424.328402382     A.U. after   14 cycles
 SCF Done:  E(RB3LYP) =  -424.329954586     A.U. after   11 cycles
 SCF Done:  E(RB3LYP) =  -424.330017071     A.U. after   10 cycles
 SCF Done:  E(RB3LYP) =  -424.330020079     A.U. after    9 cycles
 Optimization completed.
    -- Stationary point found.
 Normal termination of Gaussian 16 at Thu Sep 14 11:33:10 2023.

 ---------------------------------------------------------------------
 #N Geom=AllCheck Guess=TCheck SCRF=Check GenChk RB3LYP/6-31+G(d) Freq
 ---------------------------------------------------------------------

 Structure from the checkpoint file:  "MOLECULE_12.chk"
 ----------
 molecule_9
 ----------
 Charge =  0 Multiplicity = 1

                          Input orientation:
 ---------------------------------------------------------------------
 Center     Atomic      Atomic             Coordinates (Angstroms)
 Number     Number       Type             X           Y           Z
 ---------------------------------------------------------------------
      1          6           0       -0.211660   -0.641421    0.362785
      2          6           0        1.181168   -0.657725    0.414231
      3          6           0        1.904259    0.459021   -0.036697
      4          6           0        1.153052    1.545307   -0.521877
      5          6           0       -0.843635    0.499346   -0.141699
      6          1           0       -0.800937   -1.488553    0.703535
      7          1           0        1.712340   -1.524521    0.799151
      8          1           0        1.665605    2.434443   -0.882915
      9          5           0        3.465162    0.498334   -0.003507
     10          8           0        4.095144    1.630738   -0.463841
     11          1           0        5.062006    1.633630   -0.434081
     12          8           0        4.122074   -0.607791    0.486603
     13          1           0        5.088494   -0.567706    0.500178
     14          1           0       -1.930077    0.548828   -0.197479
     15          7           0       -0.185048    1.582022   -0.580261
 ---------------------------------------------------------------------

 SCF Done:  E(RB3LYP) =  -424.330020079     A.U. after    1 cycles

 Alpha  occ. eigenvalues --  -19.18781 -19.18699 -14.33481 -10.22860 -10.22445
 Alpha  occ. eigenvalues --  -10.21149 -10.20267 -10.18522  -6.80940  -1.06058
 Alpha  occ. eigenvalues --   -1.02776  -0.94155  -0.80338  -0.76182  -0.63826
 Alpha  occ. eigenvalues --   -0.63053  -0.58523  -0.56708  -0.52101  -0.47552
 Alpha  occ. eigenvalues --   -0.45869  -0.44853  -0.41432  -0.40551  -0.39999
 Alpha  occ. eigenvalues --   -0.39098  -0.36206  -0.35065  -0.34521  -0.28855
 Alpha  occ. eigenvalues --   -0.26519  -0.25591
 Alpha virt. eigenvalues --   -0.04536  -0.03552  -0.02592   0.00870   0.01564
 Alpha virt. eigenvalues --    0.02959   0.03399   0.04317   0.06123   0.06419
 Alpha virt. eigenvalues --    0.07518   0.07808   0.08265   0.09718   0.11484

 Mulliken charges:
               1
     1  C    0.034286
     2  C   -0.002504
     3  C   -0.158586
     4  C   -0.484465
     5  C   -0.267999
     6  H    0.185101
     7  H    0.205629
     8  H    0.199718
     9  B    0.866350
    10  O   -0.774761
    11  H    0.486452
    12  O   -0.791154
    13  H    0.494627
    14  H    0.180813
    15  N   -0.173509
 Sum of Mulliken charges =   0.00000

 Dipole moment (field-independent basis, Debye):
    X=              3.6862    Y=             -1.7876    Z=              0.8765  Tot=              4.1895
 Quadrupole moment (field-independent basis, Debye-Ang):
   XX=            -21.6852   YY=            -57.2083   ZZ=            -55.0232
   XY=              4.3088   XZ=             -0.4185   YZ=              1.0500

  Exact polarizability: 111.138   2.269  82.589   1.048 -14.520  54.404
 Approx polarizability: 159.554   1.447 133.214   2.262 -26.978  81.074

                      1                      2                      3
                      A                      A                      A
 Frequencies --     62.6168               145.0557               168.3143
 Red. masses --      6.9655                 3.9705                 5.2868
 Frc consts  --      0.0161                 0.0492                 0.0882
 IR Inten    --      0.7230                 5.2938                 3.4461

                      4                      5                      6
                      A                      A                      A
 Frequencies --    338.1684               383.2865               404.7506
 Red. masses --      6.5250                 2.2670                 1.3243
 Frc consts  --      0.4396                 0.1962                 0.1278
 IR Inten    --      6.2993                13.5986                 3.6665

                      7                      8                      9
                      A                      A                      A
 Frequencies --    423.7620               424.2426               548.5880
 Red. masses --      2.3417                 7.0375                 1.3126
 Frc consts  --      0.2478                 0.7463                 0.2327
 IR Inten    --      2.0832                 8.0574               229.4519

                     10                     11                     12
                      A                      A                      A
 Frequencies --    558.5465               638.9415               669.2945
 Red. masses --      3.5170                 7.3046                 7.6955
 Frc consts  --      0.6465                 1.7570                 2.0311
 IR Inten    --     41.0797                 6.0031                56.1239

                     13                     14                     15
                      A                      A                      A
 Frequencies --    728.6503               758.0728               826.6507
 Red. masses --      1.8982                 6.2863                 1.6828
 Frc consts  --      0.5938                 2.1285                 0.6775
 IR Inten    --     35.9945                 2.1960                11.8233

                     16                     17                     18
                      A                      A                      A
 Frequencies --    917.2670               970.6261               993.6610
 Red. masses --      1.1060                 1.3515                 1.4276
 Frc consts  --      0.5483                 0.7502                 0.8305
 IR Inten    --    175.7730                 0.1251                 0.9121

                     19                     20                     21
                      A                      A                      A
 Frequencies --    996.4015              1015.5642              1044.9119
 Red. masses --      2.7139                 1.3972                 4.4162
 Frc consts  --      1.5875                 0.8490                 2.8409
 IR Inten    --    167.4477                 0.0084                 6.0696

                     22                     23                     24
                      A                      A                      A
 Frequencies --   1061.3847              1133.7197              1148.7356
 Red. masses --      2.9065                 2.0333                 1.6098
 Frc consts  --      1.9291                 1.5398                 1.2516
 IR Inten    --      4.4440                 1.1431                 9.5439

                     25                     26                     27
                      A                      A                      A
 Frequencies --   1236.5397              1295.7228              1363.7090
 Red. masses --      1.4394                 6.3443                 2.6766
 Frc consts  --      1.2967                 6.2756                 2.9327
 IR Inten    --     10.8603                 6.9036               170.8520

                     28                     29                     30
                      A                      A                      A
 Frequencies --   1380.6874              1386.2871              1453.1219
 Red. masses --      3.8709                 1.7057                 2.3905
 Frc consts  --      4.3476                 1.9313                 2.9740
 IR Inten    --    275.6689               143.2917                90.7464

                     31                     32                     33
                      A                      A                      A
 Frequencies --   1520.3046              1612.4777              1643.5190
 Red. masses --      2.2632                 4.5754                 5.1838
 Frc consts  --      3.0820                 7.0092                 8.2498
 IR Inten    --      2.1249                38.2831                78.6853

                     34                     35                     36
                      A                      A                      A
 Frequencies --   3168.0361              3187.3815              3191.3910
 Red. masses --      1.0884                 1.0906                 1.0899
 Frc consts  --      6.4360                 6.5283                 6.5405
 IR Inten    --     17.6587                14.9693                10.1448

                     37                     38                     39
                      A                      A                      A
 Frequencies --   3207.0572              3790.6652              3794.4206
 Red. masses --      1.0965                 1.0673                 1.0657
 Frc consts  --      6.6447                 9.0360                 9.0398
 IR Inten    --     18.9110                12.1600                71.8411

 - Thermochemistry -
 -------------------
 Temperature   298.150 Kelvin.  Pressure   1.00000 Atm.
 Atom     1 has atomic number  6 and mass  12.00000

 Molecular mass:   123.04916 amu.
 Principal axes and moments of inertia in atomic units:
                           1         2         3
     Eigenvalues --   487.154041574.926032062.08005
           X            0.99955   0.00626  -0.02940
           Y            0.00572   0.92059   0.39050
           Z            0.02951  -0.39049   0.92013
 This molecule is an asymmetric top.
 Rotational symmetry number  1.
 Warning -- assumption of classical behavior for rotation
           may cause significant error
 Rotational temperatures (Kelvin)      0.17780     0.05500     0.04200
 Rotational constants (GHZ):           3.70466     1.14592     0.87520
 Zero-point vibrational energy     296629.2 (Joules/Mol)
                                   70.89609 (Kcal/Mol)
 Warning -- explicit consideration of  10 degrees of freedom as
           vibrations may cause significant error
 Vibrational temperatures:     90.09   208.70   242.17   486.55   551.46
          (Kelvin)            582.35   609.70   610.39   789.30   803.62
                              919.29   962.97  1048.37  1090.70  1189.37
                             1319.74  1396.51  1429.66  1433.60  1461.17
                             1503.40  1527.10  1631.17  1652.77  1779.10
                             1864.26  1962.07  1986.50  1994.56  2090.72
                             2187.38  2320.00  2364.66  4558.10  4585.93
                             4591.70  4614.24  5453.92  5459.32

 Zero-point correction=                           0.112980 (Hartree/Particle)
 Thermal correction to Energy=                    0.120739
 Thermal correction to Enthalpy=                  0.121683
 Thermal correction to Gibbs Free Energy=         0.080280
 Sum of electronic and zero-point Energies=           -424.217040
 Sum of electronic and thermal Energies=              -424.209281
 Sum of electronic and thermal Enthalpies=            -424.208337
 Sum of electronic and thermal Free Energies=         -424.249740

                     E (Thermal)             CV                S
                      KCal/Mol        Cal/Mol-Kelvin    Cal/Mol-Kelvin
 Total                   75.765             29.414             87.141
 Electronic               0.000              0.000              0.000
 Translational            0.889              2.981             40.336
 Rotational               0.889              2.981             28.849
 Vibrational             73.988             23.453             17.955
 Vibration     1          0.597              1.972              4.373
 Vibration     2          0.616              1.908              2.736
 Vibration     3          0.625              1.881              2.454
 Vibration     4          0.718              1.599              1.221
 Vibration     5          0.752              1.506              1.026
 Vibration     6          0.770              1.460              0.945
 Vibration     7          0.786              1.419              0.879
 Vibration     8          0.786              1.418              0.878
 Vibration     9          0.904              1.143              0.547
 Vibration    10          0.914              1.121              0.527

 Optimization completed.
    -- Stationary point found.
 Normal termination of Gaussian 16 at Thu Sep 14 11:34:03 2023.
