 Gaussian 16, Revision B.01,
 Gaussian 16:  EM64L-G16RevB.01 20-Dec-2017

 ----------------------------------------------------------------
 # opt freq b3lyp/6-31+g(d) nosymm empiricaldispersion=gd3 volume
 ----------------------------------------------------------------

 -----------
 molecule_30
 -----------
 Symbolic Z-matrix:
 Charge =  0 Multiplicity = 1

 SCF Done:  E(RB3LYP) =  -767.076449869     A.U. after   13 cycles
 SCF Done:  E(RB3LYP) =  -767.078348320     A.U. after   11 cycles
 SCF Done:  E(RB3LYP) =  -767.078540264     A.U. after   11 cycles
 SCF Done:  E(RB3LYP) =  -767.078555569     A.U. after   11 cycles
 Optimization completed.
    -- Stationary point found.
 Normal termination of Gaussian 16 at Fri Sep 15 03:59:31 2023.

 ---------------------------------------------------------------------
 #N Geom=AllCheck Guess=TCheck SCRF=Check GenChk RB3LYP/6-31+G(d) Freq
 ---------------------------------------------------------------------

 Structure from the checkpoint file:  "MOLECULE_30.chk"
 -----------
 molecule_30
 -----------
 Charge =  0 Multiplicity = 1

                          Input orientation:
 ---------------------------------------------------------------------
 Center     Atomic      Atomic             Coordinates (Angstroms)
 Number     Number       Type             X           Y           Z
 ---------------------------------------------------------------------
      1          6           0       -0.264749   -0.715395   -0.003267
      2          6           0        1.132103   -0.710836   -0.013670
      3          6           0        1.828178    0.500121   -0.032109
      4          6           0        1.132245    1.711184   -0.015232
      5          6           0       -0.264607    1.715920   -0.004836
      6          6           0       -0.950960    0.500305   -0.000988
      7          1           0       -0.814727   -1.650743    0.008909
      8          1           0        1.689748   -1.642734   -0.001371
      9          1           0        1.690000    2.643031   -0.004133
     10          1           0       -0.814474    2.651347    0.006135
     11          8           0        3.217155    0.500071    0.018857
     12          1           0        3.582381    0.499507   -0.879345
     13         17           0       -2.710706    0.500417    0.012878
 ---------------------------------------------------------------------

 SCF Done:  E(RB3LYP) =  -767.078555569     A.U. after    1 cycles

 Alpha  occ. eigenvalues -- -101.55786 -19.18748 -10.26481 -10.26342 -10.21838
 Alpha  occ. eigenvalues --  -10.21838 -10.21311 -10.21311  -9.47304  -7.23710
 Alpha  occ. eigenvalues --   -7.22736  -7.22712  -1.06196  -0.89909  -0.84250
 Alpha  occ. eigenvalues --   -0.77268  -0.73820  -0.63858  -0.61723  -0.56258
 Alpha  occ. eigenvalues --   -0.50137  -0.49358  -0.47033  -0.44697  -0.43582
 Alpha  occ. eigenvalues --   -0.40054  -0.38900  -0.38722  -0.33426  -0.32092
 Alpha  occ. eigenvalues --   -0.31516  -0.27632  -0.25006
 Alpha virt. eigenvalues --   -0.03278  -0.02603  -0.00662   0.00453   0.01325
 Alpha virt. eigenvalues --    0.02155   0.04225   0.05271   0.05968   0.06115
 Alpha virt. eigenvalues --    0.07470   0.08080   0.08427   0.08900   0.11591

 Mulliken charges:
               1
     1  C   -0.532601
     2  C    0.326659
     3  C   -0.616565
     4  C    0.326671
     5  C   -0.532600
     6  C    0.261767
     7  H    0.203846
     8  H    0.197545
     9  H    0.197544
    10  H    0.203846
    11  O   -0.700904
    12  H    0.497217
    13  Cl   0.167574
 Sum of Mulliken charges =   0.00000

 Dipole moment (field-independent basis, Debye):
    X=              1.3161    Y=             -0.0010    Z=             -1.5525  Tot=              2.0353
 Quadrupole moment (field-independent basis, Debye-Ang):
   XX=            -56.2667   YY=            -47.8497   ZZ=            -54.9953
   XY=              0.6550   XZ=             -6.3808   YZ=             -0.7809

  Exact polarizability: 116.951  -0.003  85.625  -2.018  -0.024  48.701
 Approx polarizability: 173.239  -0.003 140.140  -2.369  -0.045  70.344

 ******    1 imaginary frequencies (negative Signs) ******

                      1                      2                      3
                      A                      A                      A
 Frequencies --   -317.3805               124.0597               266.4094
 Red. masses --      1.1092                 7.7733                 8.2966
 Frc consts  --      0.0658                 0.0705                 0.3469
 IR Inten    --    123.4098                 1.5241                 0.3483

                      4                      5                      6
                      A                      A                      A
 Frequencies --    324.0384               379.1980               425.5698
 Red. masses --      5.7597                14.6968                 3.6373
 Frc consts  --      0.3563                 1.2451                 0.3881
 IR Inten    --      4.5958                 1.3615                 0.1366

                      7                      8                      9
                      A                      A                      A
 Frequencies --    429.3634               501.3358               643.5160
 Red. masses --      3.6317                 2.5962                 7.4324
 Frc consts  --      0.3945                 0.3844                 1.8134
 IR Inten    --      0.0003                27.6627                41.0435

                     10                     11                     12
                      A                      A                      A
 Frequencies --    644.3650               686.2830               827.1343
 Red. masses --      7.0864                 4.0389                 1.2420
 Frc consts  --      1.7336                 1.1208                 0.5007
 IR Inten    --      0.0119                 2.7912                 0.3468

                     13                     14                     15
                      A                      A                      A
 Frequencies --    833.6361               835.3466               951.1355
 Red. masses --      1.8507                 3.3129                 1.2732
 Frc consts  --      0.7578                 1.3621                 0.6787
 IR Inten    --     49.7716                14.7798                 1.3842

                     16                     17                     18
                      A                      A                      A
 Frequencies --    968.0219              1030.7045              1102.6469
 Red. masses --      1.3387                 3.5131                 3.0502
 Frc consts  --      0.7391                 2.1989                 2.1850
 IR Inten    --      0.0381                21.7788                52.4656

                     19                     20                     21
                      A                      A                      A
 Frequencies --   1130.9261              1183.3469              1204.0151
 Red. masses --      1.3215                 1.6039                 1.1870
 Frc consts  --      0.9958                 1.3233                 1.0138
 IR Inten    --      6.3846               182.9977                36.9217

                     22                     23                     24
                      A                      A                      A
 Frequencies --   1283.1202              1320.8182              1325.2875
 Red. masses --      2.1909                 1.6640                 3.6551
 Frc consts  --      2.1252                 1.7104                 3.7825
 IR Inten    --      6.5399                 0.8930                 0.0269

                     25                     26                     27
                      A                      A                      A
 Frequencies --   1437.4967              1532.3816              1624.7983
 Red. masses --      2.9134                 2.3871                 7.2278
 Frc consts  --      3.5470                 3.3026                11.2423
 IR Inten    --      1.4077               132.2406                 0.6296

                     28                     29                     30
                      A                      A                      A
 Frequencies --   1643.4042              3203.7737              3204.6795
 Red. masses --      5.7276                 1.0889                 1.0893
 Frc consts  --      9.1140                 6.5851                 6.5914
 IR Inten    --      3.7594                 7.9154                 1.6162

                     31                     32                     33
                      A                      A                      A
 Frequencies --   3220.9293              3222.4298              3746.7596
 Red. masses --      1.0945                 1.0950                 1.0668
 Frc consts  --      6.6899                 6.6996                 8.8233
 IR Inten    --      6.4828                 0.0130                70.4122

 - Thermochemistry -
 -------------------
 Temperature   298.150 Kelvin.  Pressure   1.00000 Atm.
 Atom     1 has atomic number  6 and mass  12.00000

 Molecular mass:   128.00289 amu.
 Principal axes and moments of inertia in atomic units:
                           1         2         3
     Eigenvalues --   321.427671879.767432195.75386
           X            0.99996   0.00006   0.00868
           Y           -0.00006   1.00000   0.00064
           Z           -0.00868  -0.00065   0.99996
 This molecule is an asymmetric top.
 Rotational symmetry number  1.
 Rotational temperatures (Kelvin)      0.26947     0.04608     0.03945
 Rotational constants (GHZ):           5.61477     0.96009     0.82192
    1 imaginary frequencies ignored.
 Zero-point vibrational energy     246771.2 (Joules/Mol)
                                   58.97974 (Kcal/Mol)
 Warning -- explicit consideration of   7 degrees of freedom as
           vibrations may cause significant error
 Vibrational temperatures:    178.49   383.30   466.22   545.58   612.30
          (Kelvin)            617.76   721.31   925.88   927.10   987.41
                             1190.06  1199.42  1201.88  1368.47  1392.77
                             1482.95  1586.46  1627.15  1702.57  1732.31
                             1846.12  1900.36  1906.79  2068.24  2204.76
                             2337.72  2364.49  4609.52  4610.82  4634.20
                             4636.36  5390.75

 Zero-point correction=                           0.093990 (Hartree/Particle)
 Thermal correction to Energy=                    0.100338
 Thermal correction to Enthalpy=                  0.101282
 Thermal correction to Gibbs Free Energy=         0.062912
 Sum of electronic and zero-point Energies=           -766.984565
 Sum of electronic and thermal Energies=              -766.978217
 Sum of electronic and thermal Enthalpies=            -766.977273
 Sum of electronic and thermal Free Energies=         -767.015644

                     E (Thermal)             CV                S
                      KCal/Mol        Cal/Mol-Kelvin    Cal/Mol-Kelvin
 Total                   62.963             24.196             80.758
 Electronic               0.000              0.000              0.000
 Translational            0.889              2.981             40.454
 Rotational               0.889              2.981             28.674
 Vibrational             61.186             18.235             11.630
 Vibration     1          0.610              1.929              3.036
 Vibration     2          0.672              1.735              1.619
 Vibration     3          0.709              1.627              1.290
 Vibration     4          0.749              1.514              1.042
 Vibration     5          0.787              1.415              0.873
 Vibration     6          0.791              1.406              0.861
 Vibration     7          0.857              1.247              0.655

 Optimization completed.
    -- Stationary point found.
 Normal termination of Gaussian 16 at Fri Sep 15 04:00:10 2023.
