 Gaussian 16, Revision B.01,
 Gaussian 16:  EM64L-G16RevB.01 20-Dec-2017

 ----------------------------------------------------------------------
 # opt freq b3lyp/6-31+g(d) empiricaldispersion=gd3 scf=maxcycle=1000 v
 olume
 ----------------------------------------------------------------------

 -------------------
 Title Card Required
 -------------------
 Symbolic Z-matrix:
 Charge =  0 Multiplicity = 1

 SCF Done:  E(RB3LYP) =  -512.003718907     A.U. after   14 cycles
 Optimization completed.
    -- Stationary point found.
 Normal termination of Gaussian 16 at Wed Sep 20 07:37:03 2023.

 ---------------------------------------------------------------------
 #N Geom=AllCheck Guess=TCheck SCRF=Check GenChk RB3LYP/6-31+G(d) Freq
 ---------------------------------------------------------------------

 Structure from the checkpoint file:  "molecule35vol.chk"
 -------------------
 Title Card Required
 -------------------
 Charge =  0 Multiplicity = 1

                         Standard orientation:
 ---------------------------------------------------------------------
 Center     Atomic      Atomic             Coordinates (Angstroms)
 Number     Number       Type             X           Y           Z
 ---------------------------------------------------------------------
      1          6           0        0.005019    1.214816   -0.000060
      2          6           0       -1.386080    1.206947    0.000045
      3          6           0       -2.078744   -0.013553    0.000169
      4          6           0       -1.376374   -1.228246   -0.000092
      5          6           0        0.011906   -1.223091   -0.000287
      6          6           0        0.692105   -0.000477   -0.000148
      7          1           0        0.558782    2.146106    0.000044
      8          1           0       -1.933630    2.146868   -0.000009
      9          1           0       -1.934607   -2.158666    0.000037
     10          1           0        0.574117   -2.149292   -0.000475
     11          8           0       -3.437949   -0.088759   -0.000057
     12          1           0       -3.830750    0.798666    0.001114
     13          7           0        2.157377    0.006360    0.000021
     14          8           0        2.739780   -1.081666    0.000380
     15          8           0        2.730352    1.099603   -0.000150
 ---------------------------------------------------------------------

 SCF Done:  E(RB3LYP) =  -512.003718907     A.U. after    1 cycles

 The electronic state is 1-A.
 Alpha  occ. eigenvalues --  -19.22620 -19.19332 -19.19321 -14.58177 -10.29795
 Alpha  occ. eigenvalues --  -10.26239 -10.23844 -10.23594 -10.23308 -10.22641
 Alpha  occ. eigenvalues --   -1.23276  -1.10498  -1.05993  -0.90274  -0.81687
 Alpha  occ. eigenvalues --   -0.79234  -0.71483  -0.66316  -0.62027  -0.58705
 Alpha  occ. eigenvalues --   -0.56436  -0.53943  -0.52744  -0.50232  -0.48405
 Alpha  occ. eigenvalues --   -0.46573  -0.45004  -0.44863  -0.42041  -0.38195
 Alpha  occ. eigenvalues --   -0.37676  -0.32060  -0.31986  -0.30109  -0.29398
 Alpha  occ. eigenvalues --   -0.26786
 Alpha virt. eigenvalues --   -0.10063  -0.04664  -0.02382  -0.00907   0.00534
 Alpha virt. eigenvalues --    0.01573   0.03164   0.04644   0.05123   0.05871
 Alpha virt. eigenvalues --    0.07593   0.07723   0.08207   0.09450   0.11401

 Mulliken charges:
               1
     1  C   -0.332676
     2  C    0.028917
     3  C    0.283934
     4  C   -0.092490
     5  C   -0.264728
     6  C    0.114491
     7  H    0.232244
     8  H    0.181443
     9  H    0.207501
    10  H    0.232382
    11  O   -0.675789
    12  H    0.484608
    13  N   -0.285019
    14  O   -0.056286
    15  O   -0.058532
 Sum of Mulliken charges =   0.00000

 Dipole moment (field-independent basis, Debye):
    X=             -5.4424    Y=              1.4054    Z=              0.0017  Tot=              5.6209
 Quadrupole moment (field-independent basis, Debye-Ang):
   XX=            -66.0705   YY=            -52.0887   ZZ=            -58.7911
   XY=             -6.3949   XZ=             -0.0102   YZ=              0.0038

  Exact polarizability: 134.406  -1.371  97.079  -0.004   0.001  46.784
 Approx polarizability: 211.116  -1.235 182.348  -0.008  -0.003  68.157

                      1                      2                      3
                      A                      A                      A
 Frequencies --     63.0139               113.7167               234.6700
 Red. masses --      7.8587                 7.6875                 8.1575
 Frc consts  --      0.0184                 0.0586                 0.2647
 IR Inten    --      0.3076                 1.3170                 2.4649

                      4                      5                      6
                      A                      A                      A
 Frequencies --    299.3661               363.6176               388.5671
 Red. masses --      6.1196                11.2977                 1.1156
 Frc consts  --      0.3231                 0.8801                 0.0992
 IR Inten    --      1.8157                 0.0846               122.4693

                      7                      8                      9
                      A                      A                      A
 Frequencies --    413.9557               425.9042               501.6694
 Red. masses --      4.7037                 3.0394                 2.8154
 Frc consts  --      0.4749                 0.3248                 0.4175
 IR Inten    --      9.2308                 0.7646                12.2610

                     10                     11                     12
                      A                      A                      A
 Frequencies --    537.4473               636.0094               645.3883
 Red. masses --      6.6591                 7.7268                 7.0390
 Frc consts  --      1.1333                 1.8415                 1.7275
 IR Inten    --      2.7933                20.9674                 1.3000

                     13                     14                     15
                      A                      A                      A
 Frequencies --    678.9674               749.5535               819.5737
 Red. masses --      3.6882                 7.0937                 1.2928
 Frc consts  --      1.0018                 2.3482                 0.5116
 IR Inten    --      8.6556                24.5551                 6.7670

                     16                     17                     18
                      A                      A                      A
 Frequencies --    820.1919               860.1053               872.9272
 Red. masses --      7.3546                 1.7097                 8.6325
 Frc consts  --      2.9150                 0.7452                 3.8757
 IR Inten    --      0.2399                46.5507                39.3113

                     19                     20                     21
                      A                      A                      A
 Frequencies --    970.6231               987.7819              1027.5479
 Red. masses --      1.3052                 1.3191                 2.8228
 Frc consts  --      0.7245                 0.7583                 1.7560
 IR Inten    --      1.4421                 0.1182                 0.0023

                     22                     23                     24
                      A                      A                      A
 Frequencies --   1132.2810              1143.2271              1196.9135
 Red. masses --      3.1002                 1.3472                 1.2848
 Frc consts  --      2.3418                 1.0374                 1.0845
 IR Inten    --    119.4394                12.5568               127.2323

                     25                     26                     27
                      A                      A                      A
 Frequencies --   1210.8663              1307.1497              1345.4016
 Red. masses --      1.2360                 3.7910                 1.3655
 Frc consts  --      1.0678                 3.8164                 1.4563
 IR Inten    --     66.2244               181.0276                15.3827

                     28                     29                     30
                      A                      A                      A
 Frequencies --   1375.5158              1393.6411              1481.7468
 Red. masses --     12.2408                 5.3944                 3.0054
 Frc consts  --     13.6455                 6.1730                 3.8877
 IR Inten    --    428.1308                 8.3108                21.0739

                     31                     32                     33
                      A                      A                      A
 Frequencies --   1541.4152              1589.3443              1648.7011
 Red. masses --      2.4979                10.7967                 6.2054
 Frc consts  --      3.4967                16.0686                 9.9382
 IR Inten    --     56.7105               205.5996               159.7237

                     34                     35                     36
                      A                      A                      A
 Frequencies --   1661.2437              3181.3281              3219.9981
 Red. masses --      6.7434                 1.0908                 1.0907
 Frc consts  --     10.9646                 6.5045                 6.6629
 IR Inten    --     75.7488                12.2420                 1.8891

                     37                     38                     39
                      A                      A                      A
 Frequencies --   3244.7518              3246.3544              3745.0174
 Red. masses --      1.0926                 1.0935                 1.0664
 Frc consts  --      6.7776                 6.7898                 8.8123
 IR Inten    --      1.8109                 2.1053                82.9391

 - Thermochemistry -
 -------------------
 Temperature   298.150 Kelvin.  Pressure   1.00000 Atm.
 Atom     1 has atomic number  6 and mass  12.00000

 Molecular mass:   139.02694 amu.
 Principal axes and moments of inertia in atomic units:
                           1         2         3
     Eigenvalues --   459.543272212.674492672.21772
           X            0.99998  -0.00627  -0.00001
           Y            0.00627   0.99998   0.00001
           Z            0.00001  -0.00001   1.00000
 This molecule is an asymmetric top.
 Rotational symmetry number  1.
 Warning -- assumption of classical behavior for rotation
           may cause significant error
 Rotational temperatures (Kelvin)      0.18848     0.03914     0.03241
 Rotational constants (GHZ):           3.92725     0.81564     0.67537
 Zero-point vibrational energy     281574.0 (Joules/Mol)
                                   67.29780 (Kcal/Mol)
 Warning -- explicit consideration of  10 degrees of freedom as
           vibrations may cause significant error
 Vibrational temperatures:     90.66   163.61   337.64   430.72   523.16
          (Kelvin)            559.06   595.59   612.78   721.79   773.27
                              915.08   928.57   976.88  1078.44  1179.18
                             1180.07  1237.50  1255.95  1396.51  1421.20
                             1478.41  1629.10  1644.85  1722.09  1742.17
                             1880.70  1935.73  1979.06  2005.14  2131.90
                             2217.75  2286.71  2372.11  2390.16  4577.22
                             4632.86  4668.47  4670.78  5388.24

 Zero-point correction=                           0.107246 (Hartree/Particle)
 Thermal correction to Energy=                    0.115198
 Thermal correction to Enthalpy=                  0.116142
 Thermal correction to Gibbs Free Energy=         0.073998
 Sum of electronic and zero-point Energies=           -511.896473
 Sum of electronic and thermal Energies=              -511.888521
 Sum of electronic and thermal Enthalpies=            -511.887577
 Sum of electronic and thermal Free Energies=         -511.929721

                     E (Thermal)             CV                S
                      KCal/Mol        Cal/Mol-Kelvin    Cal/Mol-Kelvin
 Total                   72.288             30.310             88.700
 Electronic               0.000              0.000              0.000
 Translational            0.889              2.981             40.700
 Rotational               0.889              2.981             29.387
 Vibrational             70.510             24.348             18.613
 Vibration     1          0.597              1.972              4.361
 Vibration     2          0.607              1.938              3.204
 Vibration     3          0.654              1.788              1.843
 Vibration     4          0.692              1.675              1.420
 Vibration     5          0.737              1.547              1.107
 Vibration     6          0.757              1.495              1.006
 Vibration     7          0.778              1.440              0.913
 Vibration     8          0.788              1.414              0.872
 Vibration     9          0.857              1.246              0.654
 Vibration    10          0.892              1.167              0.571

 Optimization completed.
    -- Stationary point found.
 Normal termination of Gaussian 16 at Wed Sep 20 07:38:38 2023.
