 Gaussian 16, Revision B.01,
 Gaussian 16:  EM64L-G16RevB.01 20-Dec-2017

 ----------------------------------------------------------------------
 # opt freq b3lyp/6-31+g(d) geom=connectivity empiricaldispersion=gd3 v
 olume
 ----------------------------------------------------------------------

 -------------------
 Title Card Required
 -------------------
 Symbolic Z-matrix:
 Charge =  0 Multiplicity = 1

 SCF Done:  E(RB3LYP) =  -867.891969643     A.U. after   14 cycles
 Optimization completed.
    -- Stationary point found.
 Normal termination of Gaussian 16 at Sun Sep 17 09:14:07 2023.

 ---------------------------------------------------------------------
 #N Geom=AllCheck Guess=TCheck SCRF=Check GenChk RB3LYP/6-31+G(d) Freq
 ---------------------------------------------------------------------

 Structure from the checkpoint file:  "MOLECULE_9.chk"
 -------------------
 Title Card Required
 -------------------
 Charge =  0 Multiplicity = 1

                         Standard orientation:
 ---------------------------------------------------------------------
 Center     Atomic      Atomic             Coordinates (Angstroms)
 Number     Number       Type             X           Y           Z
 ---------------------------------------------------------------------
      1          6           0        1.060485   -1.217268    0.000013
      2          6           0       -0.334775   -1.205315    0.000035
      3          6           0       -1.059777    0.000286    0.000033
      4          6           0       -0.334960    1.205628    0.000002
      5          6           0        1.060553    1.217450   -0.000016
      6          6           0        1.744202    0.000294   -0.000013
      7          1           0        1.613125   -2.151537    0.000017
      8          1           0       -0.873103   -2.149190    0.000057
      9          1           0       -0.872836    2.149756    0.000001
     10          1           0        1.613536    2.151570   -0.000035
     11          5           0       -2.620929   -0.000042    0.000066
     12          8           0       -3.268469    1.215405    0.000012
     13          1           0       -4.235435    1.191132   -0.000061
     14          8           0       -3.267968   -1.215785   -0.000003
     15          1           0       -4.234940   -1.191952   -0.000014
     16         17           0        3.504202   -0.000176   -0.000041
 ---------------------------------------------------------------------

 SCF Done:  E(RB3LYP) =  -867.891969643     A.U. after    1 cycles

 The electronic state is 1-A.
 Alpha  occ. eigenvalues -- -101.55345 -19.18568 -19.18567 -10.25990 -10.20649
 Alpha  occ. eigenvalues --  -10.20649 -10.20466 -10.20463 -10.18416  -9.46867
 Alpha  occ. eigenvalues --   -7.23265  -7.22309  -7.22272  -6.80674  -1.05881
 Alpha  occ. eigenvalues --   -1.02580  -0.89237  -0.83598  -0.75971  -0.73662
 Alpha  occ. eigenvalues --   -0.62310  -0.61553  -0.57915  -0.56478  -0.51192
 Alpha  occ. eigenvalues --   -0.46531  -0.46449  -0.44799  -0.43417  -0.41131
 Alpha  occ. eigenvalues --   -0.41019  -0.39256  -0.36569  -0.35440  -0.34407
 Alpha  occ. eigenvalues --   -0.34348  -0.33277  -0.31482  -0.26492  -0.25055
 Alpha virt. eigenvalues --   -0.04273  -0.03502  -0.02012   0.00744   0.01291
 Alpha virt. eigenvalues --    0.01556   0.02914   0.03707   0.03822   0.05347
 Alpha virt. eigenvalues --    0.05973   0.07686   0.08613   0.08869   0.08969

 Mulliken charges:
               1
     1  C   -0.291221
     2  C   -0.091575
     3  C   -0.730323
     4  C   -0.090970
     5  C   -0.291512
     6  C    0.232177
     7  H    0.198426
     8  H    0.204229
     9  H    0.204211
    10  H    0.198416
    11  B    0.856299
    12  O   -0.787252
    13  H    0.494150
    14  O   -0.787321
    15  H    0.494193
    16  Cl   0.188071
 Sum of Mulliken charges =   0.00000

 Dipole moment (field-independent basis, Debye):
    X=             -4.3251    Y=             -0.0004    Z=              0.0000  Tot=              4.3251
 Quadrupole moment (field-independent basis, Debye-Ang):
   XX=            -47.3827   YY=            -63.2993   ZZ=            -68.1654
   XY=              0.0047   XZ=              0.0003   YZ=             -0.0003

  Exact polarizability: 149.844  -0.002 100.490  -0.001   0.000  57.278
 Approx polarizability: 208.338  -0.007 164.446  -0.001  -0.001  83.317

                      1                      2                      3
                      A                      A                      A
 Frequencies --     63.1129                82.9761               142.8530
 Red. masses --      6.2568                 7.3913                 6.8929
 Frc consts  --      0.0147                 0.0300                 0.0829
 IR Inten    --      0.0000                 1.7004                 2.0283

                      4                      5                      6
                      A                      A                      A
 Frequencies --    247.3853               286.5370               298.8651
 Red. masses --      5.4797                10.7334                 6.9274
 Frc consts  --      0.1976                 0.5192                 0.3646
 IR Inten    --      7.1936                 0.2343                 3.2222

                      7                      8                      9
                      A                      A                      A
 Frequencies --    393.8979               425.2516               439.9320
 Red. masses --      1.2193                 2.1116                 5.9939
 Frc consts  --      0.1115                 0.2250                 0.6835
 IR Inten    --      0.0001                 0.0000                 4.6609

                     10                     11                     12
                      A                      A                      A
 Frequencies --    461.4219               470.3277               547.5661
 Red. masses --      5.6861                 2.5133                 1.3621
 Frc consts  --      0.7133                 0.3276                 0.2406
 IR Inten    --     54.9711                75.1067               143.6369

                     13                     14                     15
                      A                      A                      A
 Frequencies --    604.6103               642.8099               654.2946
 Red. masses --      4.0863                 7.1180                 5.2196
 Frc consts  --      0.8801                 1.7329                 1.3165
 IR Inten    --      5.5452                 0.6437                95.7550

                     16                     17                     18
                      A                      A                      A
 Frequencies --    746.5665               764.9699               845.9971
 Red. masses --      4.1240                 6.3372                 1.5259
 Frc consts  --      1.3543                 2.1849                 0.6435
 IR Inten    --     10.8124                25.3854                39.0976

                     19                     20                     21
                      A                      A                      A
 Frequencies --    850.0554               918.1050               985.3578
 Red. masses --      1.2471                 1.1056                 1.3218
 Frc consts  --      0.5309                 0.5491                 0.7562
 IR Inten    --      0.0200               174.7292                 0.1365

                     22                     23                     24
                      A                      A                      A
 Frequencies --    996.0324               996.0561              1035.5787
 Red. masses --      2.7632                 1.3629                 3.7641
 Frc consts  --      1.6151                 0.7967                 2.3784
 IR Inten    --    222.9615                 0.0089                 5.1000

                     25                     26                     27
                      A                      A                      A
 Frequencies --   1100.2733              1125.5218              1142.1475
 Red. masses --      4.1051                 1.9471                 1.4562
 Frc consts  --      2.9280                 1.4532                 1.1193
 IR Inten    --     62.1363                 3.9262                 7.8704

                     28                     29                     30
                      A                      A                      A
 Frequencies --   1226.8298              1320.2998              1341.1786
 Red. masses --      1.1569                 8.9451                 1.2977
 Frc consts  --      1.0259                 9.1871                 1.3753
 IR Inten    --      2.3327                47.8772                 0.0211

                     31                     32                     33
                      A                      A                      A
 Frequencies --   1373.8648              1377.7233              1435.6017
 Red. masses --      3.5145                 7.6724                 2.7598
 Frc consts  --      3.9084                 8.5804                 3.3511
 IR Inten    --    369.9655               256.3125                77.1951

                     34                     35                     36
                      A                      A                      A
 Frequencies --   1535.8976              1607.1934              1642.8662
 Red. masses --      2.3308                 6.5265                 5.2427
 Frc consts  --      3.2395                 9.9327                 8.3370
 IR Inten    --      6.5113                13.6169               118.4538

                     37                     38                     39
                      A                      A                      A
 Frequencies --   3197.4678              3198.0060              3215.5920
 Red. masses --      1.0886                 1.0881                 1.0941
 Frc consts  --      6.5571                 6.5565                 6.6653
 IR Inten    --      2.5655                 3.3653                11.5639

                     40                     41                     42
                      A                      A                      A
 Frequencies --   3217.2279              3791.1518              3794.8146
 Red. masses --      1.0950                 1.0673                 1.0657
 Frc consts  --      6.6775                 9.0385                 9.0417
 IR Inten    --      1.1301                11.6990                76.4140

 - Thermochemistry -
 -------------------
 Temperature   298.150 Kelvin.  Pressure   1.00000 Atm.
 Atom     1 has atomic number  6 and mass  12.00000

 Molecular mass:   156.01494 amu.
 Principal axes and moments of inertia in atomic units:
                           1         2         3
     Eigenvalues --   497.159343460.142083957.30142
           X            1.00000   0.00001   0.00001
           Y           -0.00001   1.00000   0.00001
           Z           -0.00001  -0.00001   1.00000
 This molecule is an asymmetric top.
 Rotational symmetry number  1.
 Warning -- assumption of classical behavior for rotation
           may cause significant error
 Rotational temperatures (Kelvin)      0.17422     0.02503     0.02189
 Rotational constants (GHZ):           3.63011     0.52158     0.45605
 Zero-point vibrational energy     302321.6 (Joules/Mol)
                                   72.25659 (Kcal/Mol)
 Warning -- explicit consideration of  13 degrees of freedom as
           vibrations may cause significant error
 Vibrational temperatures:     90.81   119.38   205.53   355.93   412.26
          (Kelvin)            430.00   566.73   611.84   632.96   663.88
                              676.70   787.83   869.90   924.86   941.38
                             1074.14  1100.62  1217.20  1223.04  1320.95
                             1417.71  1433.07  1433.10  1489.97  1583.05
                             1619.37  1643.30  1765.13  1899.62  1929.66
                             1976.69  1982.24  2065.51  2209.81  2312.39
                             2363.72  4600.44  4601.22  4626.52  4628.87
                             5454.62  5459.89

 Zero-point correction=                           0.115148 (Hartree/Particle)
 Thermal correction to Energy=                    0.124203
 Thermal correction to Enthalpy=                  0.125147
 Thermal correction to Gibbs Free Energy=         0.080225
 Sum of electronic and zero-point Energies=           -867.776821
 Sum of electronic and thermal Energies=              -867.767767
 Sum of electronic and thermal Enthalpies=            -867.766823
 Sum of electronic and thermal Free Energies=         -867.811745

                     E (Thermal)             CV                S
                      KCal/Mol        Cal/Mol-Kelvin    Cal/Mol-Kelvin
 Total                   77.939             34.209             94.547
 Electronic               0.000              0.000              0.000
 Translational            0.889              2.981             41.044
 Rotational               0.889              2.981             30.299
 Vibrational             76.161             28.248             23.203
 Vibration     1          0.597              1.972              4.357
 Vibration     2          0.600              1.961              3.819
 Vibration     3          0.616              1.910              2.765
 Vibration     4          0.661              1.767              1.749
 Vibration     5          0.684              1.699              1.494
 Vibration     6          0.692              1.676              1.423
 Vibration     7          0.761              1.483              0.985
 Vibration     8          0.787              1.415              0.874
 Vibration     9          0.800              1.383              0.827
 Vibration    10          0.819              1.336              0.762
 Vibration    11          0.827              1.316              0.737
 Vibration    12          0.903              1.145              0.549
 Vibration    13          0.963              1.022              0.442

 Optimization completed.
    -- Stationary point found.
 Normal termination of Gaussian 16 at Sun Sep 17 09:15:14 2023.
