 Gaussian 16, Revision B.01,
 Gaussian 16:  EM64L-G16RevB.01 20-Dec-2017

 ----------------------------------------------------------------
 # opt freq b3lyp/6-31+g(d) nosymm empiricaldispersion=gd3 volume
 ----------------------------------------------------------------

 -----------
 molecule_15
 -----------
 Symbolic Z-matrix:
 Charge =  0 Multiplicity = 1

 SCF Done:  E(RB3LYP) =  -324.448026528     A.U. after   14 cycles
 SCF Done:  E(RB3LYP) =  -324.448411307     A.U. after   11 cycles
 SCF Done:  E(RB3LYP) =  -324.448424332     A.U. after   11 cycles
 SCF Done:  E(RB3LYP) =  -324.448266628     A.U. after   12 cycles
 SCF Done:  E(RB3LYP) =  -324.448433980     A.U. after   10 cycles
 SCF Done:  E(RB3LYP) =  -324.448433921     A.U. after    9 cycles
 SCF Done:  E(RB3LYP) =  -324.448434027     A.U. after    8 cycles
 Optimization completed.
    -- Stationary point found.
 Normal termination of Gaussian 16 at Thu Sep 14 14:27:05 2023.

 ---------------------------------------------------------------------
 #N Geom=AllCheck Guess=TCheck SCRF=Check GenChk RB3LYP/6-31+G(d) Freq
 ---------------------------------------------------------------------

 Structure from the checkpoint file:  "MOLECULE_15.chk"
 -----------
 molecule_15
 -----------
 Charge =  0 Multiplicity = 1

                          Input orientation:
 ---------------------------------------------------------------------
 Center     Atomic      Atomic             Coordinates (Angstroms)
 Number     Number       Type             X           Y           Z
 ---------------------------------------------------------------------
      1          6           0       -3.574686   -0.574869    0.000051
      2          6           0       -2.181580   -0.574211    0.000658
      3          6           0       -1.505832    0.660409    0.000178
      4          6           0       -3.486255    1.822127   -0.001453
      5          6           0       -4.247409    0.648139   -0.001025
      6          1           0       -4.123610   -1.512893    0.000409
      7          1           0       -1.614763   -1.499935    0.001487
      8          1           0       -3.974835    2.794857   -0.002290
      9          1           0       -5.332446    0.697763   -0.001530
     10          6           0       -0.070796    0.690205    0.000739
     11          6           0        1.139937    0.686828    0.001249
     12          1           0        2.207431    0.701308    0.001787
     13          7           0       -2.150266    1.846171   -0.000882
 ---------------------------------------------------------------------

 SCF Done:  E(RB3LYP) =  -324.448434027     A.U. after    1 cycles

 Alpha  occ. eigenvalues --  -14.34956 -10.26156 -10.23917 -10.22644 -10.21939
 Alpha  occ. eigenvalues --  -10.21711 -10.20557 -10.20269  -0.96053  -0.82061
 Alpha  occ. eigenvalues --   -0.80379  -0.74612  -0.65945  -0.64691  -0.56924
 Alpha  occ. eigenvalues --   -0.52861  -0.50197  -0.49537  -0.45261  -0.42294
 Alpha  occ. eigenvalues --   -0.42014  -0.38986  -0.32606  -0.30061  -0.29036
 Alpha  occ. eigenvalues --   -0.27368  -0.25519
 Alpha virt. eigenvalues --   -0.05858  -0.03926  -0.00173   0.01779   0.02206
 Alpha virt. eigenvalues --    0.02792   0.03480   0.04836   0.05107   0.05270
 Alpha virt. eigenvalues --    0.05441   0.07365   0.08395   0.08536   0.09619

 Mulliken charges:
               1
     1  C   -0.404851
     2  C    0.064185
     3  C   -0.012248
     4  C   -0.204942
     5  C    0.072580
     6  H    0.193382
     7  H    0.201929
     8  H    0.183582
     9  H    0.190407
    10  C    0.000371
    11  C   -0.406492
    12  H    0.257342
    13  N   -0.135244
 Sum of Mulliken charges =   0.00000

 Dipole moment (field-independent basis, Debye):
    X=             -1.4405    Y=             -2.0338    Z=              0.0008  Tot=              2.4922
 Quadrupole moment (field-independent basis, Debye-Ang):
   XX=            -28.9978   YY=            -48.5143   ZZ=            -49.6347
   XY=              1.9176   XZ=              0.0062   YZ=             -0.0023

  Exact polarizability: 136.856  -0.093  80.039   0.039  -0.022  45.933
 Approx polarizability: 219.397  -0.047 130.534   0.066  -0.042  64.482

                      1                      2                      3
                      A                      A                      A
 Frequencies --    138.2107               162.9633               358.3654
 Red. masses --      4.1875                 4.0605                 3.8939
 Frc consts  --      0.0471                 0.0635                 0.2946
 IR Inten    --      4.0476                 4.0114                 3.2728

                      4                      5                      6
                      A                      A                      A
 Frequencies --    414.3885               490.2803               546.5719
 Red. masses --      3.7081                 7.5857                 6.9448
 Frc consts  --      0.3752                 1.0743                 1.2224
 IR Inten    --      2.8125                 0.4757                 0.9331

                      7                      8                      9
                      A                      A                      A
 Frequencies --    567.7085               621.8650               639.3233
 Red. masses --      3.3909                 1.2574                 4.3137
 Frc consts  --      0.6439                 0.2865                 1.0388
 IR Inten    --      4.8662                54.6641                15.6002

                     10                     11                     12
                      A                      A                      A
 Frequencies --    653.3293               752.0737               797.5230
 Red. masses --      1.4193                 1.8129                 6.0391
 Frc consts  --      0.3569                 0.6041                 2.2631
 IR Inten    --     41.1148                17.1407                 4.3682

                     13                     14                     15
                      A                      A                      A
 Frequencies --    800.7296               908.0639               981.2233
 Red. masses --      2.2441                 1.3311                 1.4129
 Frc consts  --      0.8477                 0.6467                 0.8015
 IR Inten    --     46.4543                 1.1968                 0.5327

                     16                     17                     18
                      A                      A                      A
 Frequencies --   1004.9762              1010.5643              1070.5504
 Red. masses --      7.2269                 1.3150                 2.3786
 Frc consts  --      4.3005                 0.7913                 1.6061
 IR Inten    --      4.6703                 0.0156                 4.6127

                     19                     20                     21
                      A                      A                      A
 Frequencies --   1122.6744              1190.1632              1247.9746
 Red. masses --      1.5887                 1.1380                 3.6934
 Frc consts  --      1.1798                 0.9498                 3.3892
 IR Inten    --      2.9054                 3.9686                16.3747

                     22                     23                     24
                      A                      A                      A
 Frequencies --   1298.2775              1326.5059              1463.5041
 Red. masses --      5.0700                 1.6708                 2.0078
 Frc consts  --      5.0349                 1.7322                 2.5338
 IR Inten    --      4.8844                 0.9778                22.1637

                     25                     26                     27
                      A                      A                      A
 Frequencies --   1503.0634              1611.3330              1632.4536
 Red. masses --      2.2074                 5.1576                 5.2690
 Frc consts  --      2.9382                 7.8899                 8.2730
 IR Inten    --     36.2325                21.1448                43.5430

                     28                     29                     30
                      A                      A                      A
 Frequencies --   2218.9666              3173.7513              3191.8659
 Red. masses --      6.1079                 1.0891                 1.0888
 Frc consts  --     17.7193                 6.4636                 6.5357
 IR Inten    --      0.9698                17.9849                 7.8218

                     31                     32                     33
                      A                      A                      A
 Frequencies --   3209.8647              3218.0623              3481.7165
 Red. masses --      1.0938                 1.0970                 1.1580
 Frc consts  --      6.6399                 6.6933                 8.2709
 IR Inten    --     19.8439                 6.7615                74.9149

 - Thermochemistry -
 -------------------
 Temperature   298.150 Kelvin.  Pressure   1.00000 Atm.
 Atom     1 has atomic number  6 and mass  12.00000

 Molecular mass:   103.04220 amu.
 Principal axes and moments of inertia in atomic units:
                           1         2         3
     Eigenvalues --   308.816611146.552791455.36940
           X            0.99982  -0.01884  -0.00043
           Y            0.01884   0.99982   0.00064
           Z            0.00042  -0.00065   1.00000
 This molecule is an asymmetric top.
 Rotational symmetry number  1.
 Rotational temperatures (Kelvin)      0.28047     0.07554     0.05951
 Rotational constants (GHZ):           5.84405     1.57406     1.24006
 Zero-point vibrational energy     256054.0 (Joules/Mol)
                                   61.19838 (Kcal/Mol)
 Warning -- explicit consideration of   7 degrees of freedom as
           vibrations may cause significant error
 Vibrational temperatures:    198.85   234.47   515.61   596.21   705.40
          (Kelvin)            786.40   816.81   894.73   919.84   940.00
                             1082.07  1147.46  1152.07  1306.50  1411.76
                             1445.94  1453.98  1540.28  1615.28  1712.38
                             1795.56  1867.93  1908.55  2105.66  2162.57
                             2318.35  2348.74  3192.60  4566.32  4592.38
                             4618.28  4630.07  5009.41

 Zero-point correction=                           0.097526 (Hartree/Particle)
 Thermal correction to Energy=                    0.103848
 Thermal correction to Enthalpy=                  0.104792
 Thermal correction to Gibbs Free Energy=         0.067155
 Sum of electronic and zero-point Energies=           -324.350908
 Sum of electronic and thermal Energies=              -324.344586
 Sum of electronic and thermal Enthalpies=            -324.343642
 Sum of electronic and thermal Free Energies=         -324.381279

                     E (Thermal)             CV                S
                      KCal/Mol        Cal/Mol-Kelvin    Cal/Mol-Kelvin
 Total                   65.166             24.301             79.215
 Electronic               0.000              0.000              0.000
 Translational            0.889              2.981             39.807
 Rotational               0.889              2.981             27.735
 Vibrational             63.388             18.339             11.673
 Vibration     1          0.614              1.915              2.828
 Vibration     2          0.623              1.888              2.515
 Vibration     3          0.733              1.558              1.129
 Vibration     4          0.778              1.439              0.911
 Vibration     5          0.846              1.272              0.683
 Vibration     6          0.902              1.147              0.551
 Vibration     7          0.924              1.101              0.509

 Optimization completed.
    -- Stationary point found.
 Normal termination of Gaussian 16 at Thu Sep 14 14:27:43 2023.
