 Gaussian 09, Revision D.01,
 Gaussian 09:  EM64W-G09RevD.01 13-Apr-2013

 --------------------------------------------------------------------
 # opt freq b3lyp/6-31+g(d) geom=connectivity empiricaldispersion=gd3
 --------------------------------------------------------------------

 -------------------
 Title Card Required
 -------------------
 Symbolic Z-matrix:
 Charge =  0 Multiplicity = 1

 SCF Done:  E(RB3LYP) =  -345.278357278     A.U. after   15 cycles
 SCF Done:  E(RB3LYP) =  -345.324215581     A.U. after   14 cycles
 SCF Done:  E(RB3LYP) =  -345.367662224     A.U. after   13 cycles
 SCF Done:  E(RB3LYP) =  -345.378830530     A.U. after   13 cycles
 SCF Done:  E(RB3LYP) =  -345.382877356     A.U. after   13 cycles
 SCF Done:  E(RB3LYP) =  -345.383855839     A.U. after   13 cycles
 SCF Done:  E(RB3LYP) =  -345.384017071     A.U. after   12 cycles
 SCF Done:  E(RB3LYP) =  -345.384052700     A.U. after   11 cycles
 SCF Done:  E(RB3LYP) =  -345.384055566     A.U. after   10 cycles
 SCF Done:  E(RB3LYP) =  -345.384057790     A.U. after   11 cycles
 SCF Done:  E(RB3LYP) =  -345.384060241     A.U. after   10 cycles
 SCF Done:  E(RB3LYP) =  -345.384063603     A.U. after   11 cycles
 SCF Done:  E(RB3LYP) =  -345.384065584     A.U. after   10 cycles
 SCF Done:  E(RB3LYP) =  -345.384065820     A.U. after   10 cycles
 Optimization completed.
    -- Stationary point found.
 Normal termination of Gaussian 09 at Sat Sep 16 04:49:16 2023.

 ---------------------------------------------------------------------
 #N Geom=AllCheck Guess=TCheck SCRF=Check GenChk RB3LYP/6-31+G(d) Freq
 ---------------------------------------------------------------------

 Structure from the checkpoint file:  "D:\Reaction optimization project\source code\DFT\opti\ligand\input\molecule.chk"
 -------------------
 Title Card Required
 -------------------
 Charge =  0 Multiplicity = 1

                         Standard orientation:
 ---------------------------------------------------------------------
 Center     Atomic      Atomic             Coordinates (Angstroms)
 Number     Number       Type             X           Y           Z
 ---------------------------------------------------------------------
      1          6           0       -0.613075    0.700371   -0.026697
      2          6           0        0.681077    1.478626   -0.079699
      3          6           0        1.888481    0.637043    0.354823
      4          6           0        1.862605   -0.730002   -0.338481
      5          6           0        0.596510   -1.509239    0.050554
      6          6           0       -0.646646   -0.648023    0.043349
      7          1           0        2.818814    1.172917    0.127194
      8          1           0        0.829892    1.858804   -1.102115
      9          1           0        0.594919    2.369511    0.561370
     10          1           0        1.872687   -0.577146   -1.427510
     11          1           0        2.759374   -1.311752   -0.088899
     12          1           0        0.455792   -2.356302   -0.639080
     13          1           0        0.731340   -1.961537    1.049537
     14          1           0        1.860222    0.491631    1.444402
     15          7           0       -1.782131    1.466147   -0.154232
     16          1           0       -2.612133    0.929875    0.088461
     17          1           0       -1.753453    2.357168    0.331706
     18          7           0       -1.937525   -1.293602    0.105859
     19          1           0       -2.205886   -1.685364   -0.797859
     20          1           0       -1.927688   -2.068280    0.768301
 ---------------------------------------------------------------------

 SCF Done:  E(RB3LYP) =  -345.384065820     A.U. after    1 cycles

 The electronic state is 1-A.
 Alpha  occ. eigenvalues --  -14.32735 -14.32529 -10.20890 -10.19057 -10.18816
 Alpha  occ. eigenvalues --  -10.18395 -10.18355 -10.18245  -0.91271  -0.87124
 Alpha  occ. eigenvalues --   -0.81170  -0.73182  -0.70668  -0.62491  -0.59131
 Alpha  occ. eigenvalues --   -0.51589  -0.49863  -0.48792  -0.47754  -0.45898
 Alpha  occ. eigenvalues --   -0.42601  -0.41431  -0.39382  -0.38498  -0.37824
 Alpha  occ. eigenvalues --   -0.33368  -0.33012  -0.32096  -0.30229  -0.25153
 Alpha  occ. eigenvalues --   -0.18860
 Alpha virt. eigenvalues --   -0.00095   0.01123   0.01621   0.03240   0.03662
 Alpha virt. eigenvalues --    0.03983   0.04747   0.06280   0.07739   0.08436
 Alpha virt. eigenvalues --    0.08768   0.09371   0.10642   0.10738   0.11072

 Mulliken charges:
               1
     1  C    0.791174
     2  C   -0.432161
     3  C   -0.437828
     4  C   -0.437772
     5  C   -0.721009
     6  C   -0.104227
     7  H    0.192387
     8  H    0.221341
     9  H    0.185707
    10  H    0.203553
    11  H    0.191093
    12  H    0.196692
    13  H    0.197975
    14  H    0.204559
    15  N   -0.846676
    16  H    0.411784
    17  H    0.359248
    18  N   -0.942248
    19  H    0.394560
    20  H    0.371850
 Sum of Mulliken charges =   0.00000

 Dipole moment (field-independent basis, Debye):
    X=              0.5794    Y=             -0.4980    Z=              0.5968  Tot=              0.9695
 Quadrupole moment (field-independent basis, Debye-Ang):
   XX=            -51.5716   YY=            -45.9529   ZZ=            -51.7790
   XY=              1.7317   XZ=             -0.9948   YZ=              2.4304

  Exact polarizability:  91.091  -1.930 103.383   0.197  -1.331  67.333
 Approx polarizability: 112.551  -3.506 150.571   0.914  -3.839 101.462

                      1                      2                      3
                      A                      A                      A
 Frequencies --    109.9012               130.0954               188.7056
 Red. masses --      1.2272                 2.1872                 2.1356
 Frc consts  --      0.0087                 0.0218                 0.0448
 IR Inten    --     17.9445                 0.6733                12.2821

                      4                      5                      6
                      A                      A                      A
 Frequencies --    312.2084               317.2286               326.2712
 Red. masses --      1.9418                 2.3261                 2.7486
 Frc consts  --      0.1115                 0.1379                 0.1724
 IR Inten    --      0.7891                 6.8493                 5.8988

                      7                      8                      9
                      A                      A                      A
 Frequencies --    385.4320               422.4404               468.2624
 Red. masses --      2.8826                 1.1511                 3.6453
 Frc consts  --      0.2523                 0.1210                 0.4709
 IR Inten    --      7.5927                59.2498                 0.3282

                     10                     11                     12
                      A                      A                      A
 Frequencies --    481.8304               571.0738               625.4195
 Red. masses --      2.5987                 3.0820                 2.1926
 Frc consts  --      0.3555                 0.5922                 0.5053
 IR Inten    --      9.7574                30.2026                 6.1243

                     13                     14                     15
                      A                      A                      A
 Frequencies --    702.5803               783.1870               848.5300
 Red. masses --      4.0489                 1.3367                 1.4023
 Frc consts  --      1.1775                 0.4831                 0.5949
 IR Inten    --      1.1103               230.5940                40.4079

                     16                     17                     18
                      A                      A                      A
 Frequencies --    858.7005               879.7626               915.7368
 Red. masses --      1.4700                 2.5436                 1.8403
 Frc consts  --      0.6386                 1.1599                 0.9092
 IR Inten    --    104.4717                 1.4393                32.8846

                     19                     20                     21
                      A                      A                      A
 Frequencies --    936.9454               971.1415              1065.4213
 Red. masses --      1.5577                 2.2678                 1.8266
 Frc consts  --      0.8057                 1.2602                 1.2216
 IR Inten    --      0.8726                 3.9874                 0.2769

                     22                     23                     24
                      A                      A                      A
 Frequencies --   1090.2472              1105.3588              1148.8860
 Red. masses --      1.9089                 1.6580                 1.2327
 Frc consts  --      1.3368                 1.1935                 0.9586
 IR Inten    --      1.5532                 1.2682                 5.9917

                     25                     26                     27
                      A                      A                      A
 Frequencies --   1183.7547              1206.1487              1216.8935
 Red. masses --      1.9287                 1.2936                 2.1203
 Frc consts  --      1.5924                 1.1088                 1.8499
 IR Inten    --     16.7366                 4.6413                20.6676

                     28                     29                     30
                      A                      A                      A
 Frequencies --   1248.7501              1280.9843              1308.2937
 Red. masses --      1.9198                 1.3000                 1.2566
 Frc consts  --      1.7638                 1.2569                 1.2672
 IR Inten    --     30.3616                 6.2999                 1.0974

                     31                     32                     33
                      A                      A                      A
 Frequencies --   1322.8687              1382.9553              1385.5630
 Red. masses --      1.5700                 1.4641                 1.4632
 Frc consts  --      1.6188                 1.6498                 1.6550
 IR Inten    --      3.6690                 1.1522                 4.6634

                     34                     35                     36
                      A                      A                      A
 Frequencies --   1396.7216              1414.4852              1497.7971
 Red. masses --      1.5961                 2.1915                 1.0935
 Frc consts  --      1.8346                 2.5834                 1.4454
 IR Inten    --      5.9542                16.1196                 2.3786

                     37                     38                     39
                      A                      A                      A
 Frequencies --   1509.5078              1515.0958              1527.3662
 Red. masses --      1.0831                 1.0882                 1.0997
 Frc consts  --      1.4541                 1.4718                 1.5115
 IR Inten    --      1.5327                 5.5096                 0.9820

                     40                     41                     42
                      A                      A                      A
 Frequencies --   1657.8596              1674.4024              1763.9254
 Red. masses --      1.2012                 1.1709                 3.7785
 Frc consts  --      1.9452                 1.9342                 6.9267
 IR Inten    --     48.0957                25.3076                56.3580

                     43                     44                     45
                      A                      A                      A
 Frequencies --   2961.9617              3004.9371              3005.8324
 Red. masses --      1.0724                 1.0810                 1.0617
 Frc consts  --      5.5434                 5.7508                 5.6518
 IR Inten    --     73.4051                63.8788                32.9023

                     46                     47                     48
                      A                      A                      A
 Frequencies --   3020.6629              3028.1172              3035.8661
 Red. masses --      1.0816                 1.0685                 1.0823
 Frc consts  --      5.8146                 5.7724                 5.8771
 IR Inten    --      8.8115                45.5961                64.0466

                     49                     50                     51
                      A                      A                      A
 Frequencies --   3067.4486              3072.8656              3446.9590
 Red. masses --      1.0965                 1.1041                 1.0497
 Frc consts  --      6.0788                 6.1426                 7.3486
 IR Inten    --     75.1797                69.3216                 3.2639

                     52                     53                     54
                      A                      A                      A
 Frequencies --   3494.9604              3521.7894              3598.7534
 Red. masses --      1.0478                 1.0914                 1.0970
 Frc consts  --      7.5405                 7.9759                 8.3707
 IR Inten    --      9.4034                 1.4433                11.9911

 - Thermochemistry -
 -------------------
 Temperature   298.150 Kelvin.  Pressure   1.00000 Atm.
 Atom     1 has atomic number  6 and mass  12.00000

 Molecular mass:   112.10005 amu.
 Principal axes and moments of inertia in atomic units:
                           1         2         3
     Eigenvalues --   633.30521 914.105211460.97163
           X            0.99990   0.01372  -0.00211
           Y           -0.01370   0.99988   0.00742
           Z            0.00222  -0.00739   0.99997
 This molecule is an asymmetric top.
 Rotational symmetry number  1.
 Warning -- assumption of classical behavior for rotation
           may cause significant error
 Rotational temperatures (Kelvin)      0.13676     0.09475     0.05929
 Rotational constants (GHZ):           2.84972     1.97433     1.23530
 Zero-point vibrational energy     474910.8 (Joules/Mol)
                                  113.50642 (Kcal/Mol)
 Warning -- explicit consideration of  11 degrees of freedom as
           vibrations may cause significant error
 Vibrational temperatures:    158.12   187.18   271.50   449.20   456.42
          (Kelvin)            469.43   554.55   607.80   673.72   693.25
                              821.65   899.84  1010.86  1126.83  1220.84
                             1235.48  1265.78  1317.54  1348.05  1397.25
                             1532.90  1568.62  1590.36  1652.99  1703.16
                             1735.38  1750.84  1796.67  1843.05  1882.34
                             1903.31  1989.76  1993.51  2009.57  2035.13
                             2154.99  2171.84  2179.88  2197.54  2385.29
                             2409.09  2537.89  4261.60  4323.43  4324.72
                             4346.05  4356.78  4367.93  4413.37  4421.16
                             4959.40  5028.46  5067.06  5177.80

 Zero-point correction=                           0.180884 (Hartree/Particle)
 Thermal correction to Energy=                    0.189076
 Thermal correction to Enthalpy=                  0.190021
 Thermal correction to Gibbs Free Energy=         0.148711
 Sum of electronic and zero-point Energies=           -345.203182
 Sum of electronic and thermal Energies=              -345.194989
 Sum of electronic and thermal Enthalpies=            -345.194045
 Sum of electronic and thermal Free Energies=         -345.235354

                     E (Thermal)             CV                S
                      KCal/Mol        Cal/Mol-Kelvin    Cal/Mol-Kelvin
 Total                  118.647             31.878             86.942
 Electronic               0.000              0.000              0.000
 Translational            0.889              2.981             40.059
 Rotational               0.889              2.981             28.227
 Vibrational            116.870             25.916             18.657
 Vibration     1          0.606              1.941              3.271
 Vibration     2          0.612              1.923              2.945
 Vibration     3          0.633              1.855              2.241
 Vibration     4          0.701              1.650              1.351
 Vibration     5          0.704              1.641              1.324
 Vibration     6          0.710              1.623              1.278
 Vibration     7          0.754              1.501              1.018
 Vibration     8          0.785              1.421              0.884
 Vibration     9          0.825              1.320              0.742
 Vibration    10          0.838              1.290              0.705
 Vibration    11          0.927              1.094              0.502

 Optimization completed.
    -- Stationary point found.
 Normal termination of Gaussian 09 at Sat Sep 16 04:52:21 2023.
