 Gaussian 09, Revision D.01,
 Gaussian 09:  EM64W-G09RevD.01 13-Apr-2013

 --------------------------------------------------------------------
 # opt freq b3lyp/6-31+g(d) geom=connectivity empiricaldispersion=gd3
 --------------------------------------------------------------------

 -------------------
 Title Card Required
 -------------------
 Symbolic Z-matrix:
 Charge =  0 Multiplicity = 1

 SCF Done:  E(RB3LYP) =  -441.688433731     A.U. after   14 cycles
 SCF Done:  E(RB3LYP) =  -441.711826013     A.U. after   13 cycles
 SCF Done:  E(RB3LYP) =  -441.714106090     A.U. after   13 cycles
 SCF Done:  E(RB3LYP) =  -441.716180096     A.U. after   12 cycles
 SCF Done:  E(RB3LYP) =  -441.716054292     A.U. after   12 cycles
 SCF Done:  E(RB3LYP) =  -441.716411642     A.U. after    9 cycles
 SCF Done:  E(RB3LYP) =  -441.715436994     A.U. after   12 cycles
 SCF Done:  E(RB3LYP) =  -441.716541663     A.U. after    9 cycles
 SCF Done:  E(RB3LYP) =  -441.716685449     A.U. after   12 cycles
 SCF Done:  E(RB3LYP) =  -441.716767160     A.U. after   11 cycles
 SCF Done:  E(RB3LYP) =  -441.714197050     A.U. after   14 cycles
 SCF Done:  E(RB3LYP) =  -441.716886995     A.U. after   11 cycles
 SCF Done:  E(RB3LYP) =  -441.716916791     A.U. after   11 cycles
 SCF Done:  E(RB3LYP) =  -441.716933223     A.U. after   10 cycles
 SCF Done:  E(RB3LYP) =  -441.716958457     A.U. after   11 cycles
 SCF Done:  E(RB3LYP) =  -441.716970821     A.U. after   10 cycles
 SCF Done:  E(RB3LYP) =  -441.716973538     A.U. after   10 cycles
 SCF Done:  E(RB3LYP) =  -441.716974565     A.U. after    9 cycles
 SCF Done:  E(RB3LYP) =  -441.716974697     A.U. after    8 cycles
 Optimization completed.
    -- Stationary point found.
 Normal termination of Gaussian 09 at Sat Sep 16 04:39:18 2023.

 ---------------------------------------------------------------------
 #N Geom=AllCheck Guess=TCheck SCRF=Check GenChk RB3LYP/6-31+G(d) Freq
 ---------------------------------------------------------------------

 Structure from the checkpoint file:  "D:\Reaction optimization project\source code\DFT\opti\ligand\input\molecule.chk"
 -------------------
 Title Card Required
 -------------------
 Charge =  0 Multiplicity = 1

                         Standard orientation:
 ---------------------------------------------------------------------
 Center     Atomic      Atomic             Coordinates (Angstroms)
 Number     Number       Type             X           Y           Z
 ---------------------------------------------------------------------
      1          6           0       -1.412305   -0.907216   -0.115846
      2          6           0       -0.768786    0.465742    0.170815
      3          6           0        0.663902    0.595167   -0.425577
      4          7           0        1.370220    1.728854    0.206085
      5          6           0        1.504447   -0.670266   -0.168870
      6          8           0        2.237188   -0.619799    0.960030
      7          8           0        1.492756   -1.637459   -0.895853
      8          6           0       -1.653089    1.614206   -0.350596
      9          1           0       -0.774059   -1.698252    0.290313
     10          1           0       -1.438784   -1.072622   -1.201607
     11          1           0       -0.664880    0.568127    1.262765
     12          1           0        0.577886    0.691178   -1.516322
     13          1           0        0.744665    2.499851    0.421747
     14          1           0        2.106149    2.093863   -0.395504
     15          1           0        2.155555    0.310576    1.285144
     16          1           0       -1.869879    1.473887   -1.417634
     17          1           0       -1.186655    2.599862   -0.235351
     18          1           0       -2.606073    1.652678    0.185006
     19          6           0       -2.821061   -1.066284    0.471376
     20          1           0       -3.554952   -0.417029   -0.018933
     21          1           0       -3.167197   -2.099152    0.351581
     22          1           0       -2.831518   -0.834980    1.544974
 ---------------------------------------------------------------------

 SCF Done:  E(RB3LYP) =  -441.716974697     A.U. after    1 cycles

 The electronic state is 1-A.
 Alpha  occ. eigenvalues --  -19.19437 -19.14117 -14.36450 -10.31911 -10.24939
 Alpha  occ. eigenvalues --  -10.21838 -10.19867 -10.19096 -10.18425  -1.10199
 Alpha  occ. eigenvalues --   -1.02116  -0.92550  -0.82065  -0.74204  -0.71645
 Alpha  occ. eigenvalues --   -0.64681  -0.60335  -0.58922  -0.53581  -0.52101
 Alpha  occ. eigenvalues --   -0.49694  -0.46808  -0.45639  -0.43861  -0.43554
 Alpha  occ. eigenvalues --   -0.42578  -0.39989  -0.39618  -0.37960  -0.37023
 Alpha  occ. eigenvalues --   -0.34740  -0.33971  -0.33920  -0.31495  -0.29983
 Alpha  occ. eigenvalues --   -0.26830
 Alpha virt. eigenvalues --   -0.01618  -0.00357   0.00834   0.01665   0.02100
 Alpha virt. eigenvalues --    0.03797   0.04353   0.05054   0.05536   0.06296
 Alpha virt. eigenvalues --    0.07581   0.08363   0.08729   0.09112   0.09601

 Mulliken charges:
               1
     1  C   -0.035901
     2  C   -0.322581
     3  C    0.160644
     4  N   -0.969840
     5  C    0.389090
     6  O   -0.545527
     7  O   -0.425495
     8  C   -0.747649
     9  H    0.221081
    10  H    0.216452
    11  H    0.203954
    12  H    0.216269
    13  H    0.379214
    14  H    0.402139
    15  H    0.508028
    16  H    0.223427
    17  H    0.176606
    18  H    0.221190
    19  C   -0.884018
    20  H    0.201740
    21  H    0.207445
    22  H    0.203732
 Sum of Mulliken charges =   0.00000

 Dipole moment (field-independent basis, Debye):
    X=             -2.0559    Y=              4.8751    Z=              0.2780  Tot=              5.2981
 Quadrupole moment (field-independent basis, Debye-Ang):
   XX=            -60.0016   YY=            -58.2500   ZZ=            -58.4701
   XY=              8.8052   XZ=             -0.5960   YZ=             -2.7048

  Exact polarizability:  91.072   0.490  89.207   2.234   2.909  76.856
 Approx polarizability: 110.927  -0.768 121.076   5.217   9.819 119.281

                      1                      2                      3
                      A                      A                      A
 Frequencies --     49.2896                68.2041                98.5511
 Red. masses --      2.7172                 3.8291                 2.3636
 Frc consts  --      0.0039                 0.0105                 0.0135
 IR Inten    --      2.2681                 0.5847                 0.7281

                      4                      5                      6
                      A                      A                      A
 Frequencies --    166.9414               189.0101               227.5884
 Red. masses --      4.4916                 1.1144                 1.5617
 Frc consts  --      0.0738                 0.0235                 0.0477
 IR Inten    --      7.2410                 1.1088                 1.3458

                      7                      8                      9
                      A                      A                      A
 Frequencies --    285.4356               304.5736               326.6884
 Red. masses --      1.3413                 1.8160                 3.0141
 Frc consts  --      0.0644                 0.0993                 0.1895
 IR Inten    --      9.4890                16.6387                 5.6787

                     10                     11                     12
                      A                      A                      A
 Frequencies --    363.1962               372.3458               422.1091
 Red. masses --      2.3854                 3.3264                 3.1371
 Frc consts  --      0.1854                 0.2717                 0.3293
 IR Inten    --      0.6399                 5.1965                 1.5996

                     13                     14                     15
                      A                      A                      A
 Frequencies --    458.4492               551.9071               672.6983
 Red. masses --      2.6179                 4.1291                 4.6679
 Frc consts  --      0.3242                 0.7410                 1.2445
 IR Inten    --      0.7998                 2.6831                13.2744

                     16                     17                     18
                      A                      A                      A
 Frequencies --    729.9525               793.2016               832.6188
 Red. masses --      5.7246                 1.3711                 1.4884
 Frc consts  --      1.7971                 0.5083                 0.6080
 IR Inten    --     11.8384                 1.6305                44.4893

                     19                     20                     21
                      A                      A                      A
 Frequencies --    852.8605               855.2533               922.2082
 Red. masses --      1.8894                 1.4652                 2.0171
 Frc consts  --      0.8097                 0.6315                 1.0107
 IR Inten    --     39.3134                32.3303                23.5889

                     22                     23                     24
                      A                      A                      A
 Frequencies --    945.1786               982.7354              1016.7714
 Red. masses --      1.8488                 1.3854                 1.5632
 Frc consts  --      0.9731                 0.7883                 0.9522
 IR Inten    --    109.9686                 2.6295                 1.3288

                     25                     26                     27
                      A                      A                      A
 Frequencies --   1040.9363              1070.8375              1097.2221
 Red. masses --      2.4899                 3.2528                 1.5152
 Frc consts  --      1.5896                 2.1976                 1.0747
 IR Inten    --      6.8741                 8.5245                26.3467

                     28                     29                     30
                      A                      A                      A
 Frequencies --   1149.8703              1185.7876              1207.0722
 Red. masses --      2.1292                 1.7772                 2.4153
 Frc consts  --      1.6587                 1.4723                 2.0734
 IR Inten    --      1.4269                 1.6414                10.8028

                     31                     32                     33
                      A                      A                      A
 Frequencies --   1255.0680              1310.8702              1326.7529
 Red. masses --      1.6321                 1.2824                 1.3036
 Frc consts  --      1.5147                 1.2984                 1.3520
 IR Inten    --      4.2099                 4.3747                 6.4713

                     34                     35                     36
                      A                      A                      A
 Frequencies --   1339.1968              1374.7603              1391.1077
 Red. masses --      1.3225                 1.2347                 1.3442
 Frc consts  --      1.3974                 1.3748                 1.5326
 IR Inten    --      9.9221                 6.0878                 5.6049

                     37                     38                     39
                      A                      A                      A
 Frequencies --   1411.4474              1413.5774              1439.3608
 Red. masses --      1.3736                 1.6058                 1.2461
 Frc consts  --      1.6123                 1.8905                 1.5211
 IR Inten    --     24.5914               365.9409                 2.9458

                     40                     41                     42
                      A                      A                      A
 Frequencies --   1444.8058              1504.7034              1521.0840
 Red. masses --      1.2213                 1.0638                 1.0603
 Frc consts  --      1.5020                 1.4191                 1.4454
 IR Inten    --      5.8966                 0.0853                 4.4951

                     43                     44                     45
                      A                      A                      A
 Frequencies --   1522.3048              1527.9327              1545.2191
 Red. masses --      1.0402                 1.0608                 1.0470
 Frc consts  --      1.4203                 1.4592                 1.4729
 IR Inten    --     10.3816                12.9109                 2.6670

                     46                     47                     48
                      A                      A                      A
 Frequencies --   1696.1416              1843.6455              3005.3400
 Red. masses --      1.0891                 9.4297                 1.0822
 Frc consts  --      1.8460                18.8845                 5.7588
 IR Inten    --     41.8844               300.3097                 9.1691

                     49                     50                     51
                      A                      A                      A
 Frequencies --   3036.8895              3041.2904              3043.2547
 Red. masses --      1.0396                 1.0638                 1.0559
 Frc consts  --      5.6493                 5.7975                 5.7617
 IR Inten    --     27.2961                10.2942                24.9247

                     52                     53                     54
                      A                      A                      A
 Frequencies --   3049.2472              3091.5152              3098.1748
 Red. masses --      1.0700                 1.0958                 1.1007
 Frc consts  --      5.8615                 6.1708                 6.2250
 IR Inten    --     39.5395                 5.0638                35.8086

                     55                     56                     57
                      A                      A                      A
 Frequencies --   3104.6435              3116.7244              3130.5773
 Red. masses --      1.1010                 1.1005                 1.0978
 Frc consts  --      6.2525                 6.2984                 6.3389
 IR Inten    --     45.3951                49.2080                25.4240

                     58                     59                     60
                      A                      A                      A
 Frequencies --   3430.8576              3504.1278              3589.7253
 Red. masses --      1.0644                 1.0511                 1.0932
 Frc consts  --      7.3819                 7.6043                 8.2997
 IR Inten    --    205.0352                 0.7437                 8.2275

 - Thermochemistry -
 -------------------
 Temperature   298.150 Kelvin.  Pressure   1.00000 Atm.
 Atom     1 has atomic number  6 and mass  12.00000

 Molecular mass:   131.09463 amu.
 Principal axes and moments of inertia in atomic units:
                           1         2         3
     Eigenvalues --   847.850371558.108452067.62023
           X            0.99885   0.04780  -0.00350
           Y           -0.04787   0.99859  -0.02310
           Z            0.00239   0.02324   0.99973
 This molecule is an asymmetric top.
 Rotational symmetry number  1.
 Warning -- assumption of classical behavior for rotation
           may cause significant error
 Rotational temperatures (Kelvin)      0.10216     0.05559     0.04189
 Rotational constants (GHZ):           2.12861     1.15829     0.87286
 Zero-point vibrational energy     510505.4 (Joules/Mol)
                                  122.01372 (Kcal/Mol)
 Warning -- explicit consideration of  14 degrees of freedom as
           vibrations may cause significant error
 Vibrational temperatures:     70.92    98.13   141.79   240.19   271.94
          (Kelvin)            327.45   410.68   438.21   470.03   522.56
                              535.72   607.32   659.61   794.07   967.86
                             1050.24  1141.24  1197.95  1227.07  1230.52
                             1326.85  1359.90  1413.94  1462.91  1497.67
                             1540.69  1578.66  1654.40  1706.08  1736.71
                             1805.76  1886.05  1908.90  1926.80  1977.97
                             2001.49  2030.76  2033.82  2070.92  2078.75
                             2164.93  2188.50  2190.25  2198.35  2223.22
                             2440.37  2652.59  4324.01  4369.40  4375.73
                             4378.56  4387.18  4448.00  4457.58  4466.88
                             4484.27  4504.20  4936.23  5041.65  5164.81

 Zero-point correction=                           0.194441 (Hartree/Particle)
 Thermal correction to Energy=                    0.204938
 Thermal correction to Enthalpy=                  0.205883
 Thermal correction to Gibbs Free Energy=         0.158374
 Sum of electronic and zero-point Energies=           -441.522533
 Sum of electronic and thermal Energies=              -441.512036
 Sum of electronic and thermal Enthalpies=            -441.511092
 Sum of electronic and thermal Free Energies=         -441.558601

                     E (Thermal)             CV                S
                      KCal/Mol        Cal/Mol-Kelvin    Cal/Mol-Kelvin
 Total                  128.601             38.248             99.991
 Electronic               0.000              0.000              0.000
 Translational            0.889              2.981             40.525
 Rotational               0.889              2.981             29.392
 Vibrational            126.823             32.286             30.074
 Vibration     1          0.595              1.978              4.846
 Vibration     2          0.598              1.969              4.205
 Vibration     3          0.604              1.950              3.483
 Vibration     4          0.624              1.883              2.470
 Vibration     5          0.633              1.855              2.238
 Vibration     6          0.651              1.799              1.898
 Vibration     7          0.683              1.701              1.501
 Vibration     8          0.695              1.665              1.392
 Vibration     9          0.710              1.622              1.276
 Vibration    10          0.737              1.548              1.108
 Vibration    11          0.744              1.529              1.070
 Vibration    12          0.784              1.422              0.885
 Vibration    13          0.816              1.342              0.771
 Vibration    14          0.907              1.136              0.540

 Optimization completed.
    -- Stationary point found.
 Normal termination of Gaussian 09 at Sat Sep 16 04:43:29 2023.
