 Gaussian 09, Revision D.01,
 Gaussian 09:  EM64W-G09RevD.01 13-Apr-2013

 --------------------------------------------------
 # opt freq b3lyp/6-31+g(d) empiricaldispersion=gd3
 --------------------------------------------------

 -------------------
 Title Card Required
 -------------------
 Symbolic Z-matrix:
 Charge =  0 Multiplicity = 1

 SCF Done:  E(RB3LYP) =  -652.797686179     A.U. after   15 cycles
 SCF Done:  E(RB3LYP) =  -652.813018175     A.U. after   14 cycles
 SCF Done:  E(RB3LYP) =  -652.813631246     A.U. after   13 cycles
 SCF Done:  E(RB3LYP) =  -652.812052070     A.U. after   16 cycles
 SCF Done:  E(RB3LYP) =  -652.813639221     A.U. after   11 cycles
 SCF Done:  E(RB3LYP) =  -652.813565920     A.U. after   13 cycles
 SCF Done:  E(RB3LYP) =  -652.812837405     A.U. after   15 cycles
 SCF Done:  E(RB3LYP) =  -652.813652294     A.U. after   11 cycles
 SCF Done:  E(RB3LYP) =  -652.813600215     A.U. after   14 cycles
 SCF Done:  E(RB3LYP) =  -652.815084527     A.U. after   16 cycles
 SCF Done:  E(RB3LYP) =  -652.817804404     A.U. after   15 cycles
 SCF Done:  E(RB3LYP) =  -652.820927793     A.U. after   16 cycles
 SCF Done:  E(RB3LYP) =  -652.824442869     A.U. after   15 cycles
 SCF Done:  E(RB3LYP) =  -652.828036732     A.U. after   16 cycles
 SCF Done:  E(RB3LYP) =  -652.828660973     A.U. after   15 cycles
 SCF Done:  E(RB3LYP) =  -652.828701608     A.U. after   13 cycles
 SCF Done:  E(RB3LYP) =  -652.828707234     A.U. after   11 cycles
 SCF Done:  E(RB3LYP) =  -652.828707305     A.U. after   10 cycles
 Optimization completed.
    -- Stationary point found.
 Normal termination of Gaussian 09 at Fri Aug 25 00:48:51 2023.

 ---------------------------------------------------------------------
 #N Geom=AllCheck Guess=TCheck SCRF=Check GenChk RB3LYP/6-31+G(d) Freq
 ---------------------------------------------------------------------

 Structure from the checkpoint file:  "molecule_17.chk"
 -------------------
 Title Card Required
 -------------------
 Charge =  0 Multiplicity = 1

                         Standard orientation:
 ---------------------------------------------------------------------
 Center     Atomic      Atomic             Coordinates (Angstroms)
 Number     Number       Type             X           Y           Z
 ---------------------------------------------------------------------
      1          6           0        5.025651    0.059622    1.210355
      2          6           0        3.631682    0.019711    1.215179
      3          6           0        2.917533    0.011179    0.000275
      4          6           0        3.630985    0.043733   -1.214635
      5          6           0        5.024952    0.083485   -1.209843
      6          6           0        5.726533    0.091456    0.000251
      7          1           0        5.565970    0.065990    2.153414
      8          1           0        3.084773   -0.004883    2.153223
      9          1           0        3.083517    0.037826   -2.152658
     10          1           0        5.564721    0.108556   -2.152905
     11          1           0        6.812901    0.122490    0.000244
     12          6           0        1.488673   -0.029387    0.000240
     13          6           0        0.272378   -0.063131    0.000018
     14          6           0       -1.154313   -0.099602   -0.000349
     15          6           0       -1.837964   -1.332684   -0.011251
     16          6           0       -1.900080    1.101799    0.009955
     17          6           0       -3.229431   -1.358814   -0.011774
     18          1           0       -1.267669   -2.256529   -0.019356
     19          6           0       -3.287636    1.067664    0.009439
     20          1           0       -1.372167    2.050654    0.018362
     21          6           0       -3.965136   -0.164006   -0.001456
     22          1           0       -3.752430   -2.313253   -0.020319
     23          1           0       -3.870351    1.984220    0.017366
     24          6           0       -5.443435   -0.212114   -0.002275
     25          8           0       -6.171491    0.765809    0.006163
     26          1           0       -5.879693   -1.235015   -0.011451
 ---------------------------------------------------------------------

 SCF Done:  E(RB3LYP) =  -652.828707305     A.U. after    2 cycles

 The electronic state is 1-A.
 Alpha  occ. eigenvalues --  -19.16119 -10.28698 -10.24504 -10.23375 -10.22444
 Alpha  occ. eigenvalues --  -10.22101 -10.22016 -10.21971 -10.21810 -10.21363
 Alpha  occ. eigenvalues --  -10.21362 -10.21217 -10.21171 -10.21097 -10.21077
 Alpha  occ. eigenvalues --  -10.20849  -1.05319  -0.88846  -0.87771  -0.81453
 Alpha  occ. eigenvalues --   -0.79011  -0.77471  -0.76506  -0.73983  -0.67791
 Alpha  occ. eigenvalues --   -0.63792  -0.63204  -0.62415  -0.59136  -0.56358
 Alpha  occ. eigenvalues --   -0.54413  -0.51077  -0.49592  -0.48111  -0.47156
 Alpha  occ. eigenvalues --   -0.46114  -0.45084  -0.44767  -0.44090  -0.43997
 Alpha  occ. eigenvalues --   -0.41988  -0.39909  -0.39442  -0.38793  -0.37502
 Alpha  occ. eigenvalues --   -0.37107  -0.36619  -0.32220  -0.32170  -0.28060
 Alpha  occ. eigenvalues --   -0.27141  -0.26947  -0.25270  -0.24700
 Alpha virt. eigenvalues --   -0.08795  -0.04916  -0.03391  -0.02658  -0.00410
 Alpha virt. eigenvalues --   -0.00389   0.00453   0.01491   0.01970   0.02493
 Alpha virt. eigenvalues --    0.03173   0.04138   0.04264   0.04473   0.04538

 Mulliken charges:
               1
     1  C   -0.040934
     2  C   -0.292138
     3  C   -0.181789
     4  C   -0.292361
     5  C   -0.041022
     6  C   -0.207364
     7  H    0.185049
     8  H    0.194861
     9  H    0.194867
    10  H    0.185051
    11  H    0.183461
    12  C    0.144412
    13  C    0.106346
    14  C   -0.199123
    15  C   -0.195834
    16  C   -0.386878
    17  C   -0.759599
    18  H    0.201308
    19  C    0.305812
    20  H    0.202204
    21  C    0.529165
    22  H    0.190316
    23  H    0.220574
    24  C   -0.021920
    25  O   -0.380399
    26  H    0.155936
 Sum of Mulliken charges =   0.00000

 Dipole moment (field-independent basis, Debye):
    X=              3.9738    Y=             -1.7254    Z=             -0.0153  Tot=              4.3323
 Quadrupole moment (field-independent basis, Debye-Ang):
   XX=           -103.8928   YY=            -91.0318   ZZ=            -89.8422
   XY=             11.8063   XZ=              0.1008   YZ=             -0.0193

  Exact polarizability: 358.150   0.262 132.040   0.014   0.029 124.946
 Approx polarizability: 491.750  -6.686 218.851  -0.037   0.062 202.224

 ******    1 imaginary frequencies (negative Signs) ******

                      1                      2                      3
                      A                      A                      A
 Frequencies --    -22.0378                33.7851                37.9323
 Red. masses --      3.6902                 6.4227                 6.3702
 Frc consts  --      0.0011                 0.0043                 0.0054
 IR Inten    --      0.5081                 0.0228                 0.1982

                      4                      5                      6
                      A                      A                      A
 Frequencies --     89.4253               131.0803               152.8282
 Red. masses --      6.7756                 5.6586                 3.9341
 Frc consts  --      0.0319                 0.0573                 0.0541
 IR Inten    --      3.7534                 1.7748                 6.1357

                      7                      8                      9
                      A                      A                      A
 Frequencies --    208.8213               245.9730               247.7618
 Red. masses --      7.7783                 5.9268                 3.3933
 Frc consts  --      0.1998                 0.2113                 0.1227
 IR Inten    --      4.0217                 6.4223                 1.9991

                     10                     11                     12
                      A                      A                      A
 Frequencies --    352.0252               385.0389               410.3816
 Red. masses --      5.1548                 4.7280                 2.9085
 Frc consts  --      0.3764                 0.4130                 0.2886
 IR Inten    --      1.3221                 4.5282                 0.0025

                     13                     14                     15
                      A                      A                      A
 Frequencies --    419.1762               452.6841               503.2011
 Red. masses --      2.9248                 7.9219                 5.1421
 Frc consts  --      0.3028                 0.9565                 0.7671
 IR Inten    --      1.0300                 3.6080                 0.7822

                     16                     17                     18
                      A                      A                      A
 Frequencies --    510.6731               565.6907               573.2061
 Red. masses --      4.3258                 4.3489                 4.5057
 Frc consts  --      0.6647                 0.8199                 0.8722
 IR Inten    --      3.2452                 9.8717                11.1284

                     19                     20                     21
                      A                      A                      A
 Frequencies --    599.7535               635.3935               651.3042
 Red. masses --      7.1302                 6.5987                 7.1961
 Frc consts  --      1.5111                 1.5696                 1.7985
 IR Inten    --      0.7852                 0.0568                 1.0153

                     22                     23                     24
                      A                      A                      A
 Frequencies --    702.6119               710.2677               729.3122
 Red. masses --      1.9064                 6.1288                 3.5913
 Frc consts  --      0.5545                 1.8217                 1.1254
 IR Inten    --     37.1582                30.0304                 1.6522

                     25                     26                     27
                      A                      A                      A
 Frequencies --    771.9279               825.4584               845.1141
 Red. masses --      1.7985                 5.0799                 1.4279
 Frc consts  --      0.6314                 2.0394                 0.6009
 IR Inten    --     42.3838                50.0069                36.2018

                     28                     29                     30
                      A                      A                      A
 Frequencies --    853.9520               859.1215               870.4846
 Red. masses --      1.2477                 1.3202                 6.0029
 Frc consts  --      0.5361                 0.5741                 2.6800
 IR Inten    --      0.0750                13.4901                15.5087

                     31                     32                     33
                      A                      A                      A
 Frequencies --    933.1106               974.4741               980.0914
 Red. masses --      1.4077                 1.3370                 1.3661
 Frc consts  --      0.7221                 0.7480                 0.7731
 IR Inten    --      2.1652                 0.0694                 0.0000

                     34                     35                     36
                      A                      A                      A
 Frequencies --    996.3744              1003.9181              1013.2833
 Red. masses --      1.3596                 1.2867                 6.2706
 Frc consts  --      0.7953                 0.7641                 3.7933
 IR Inten    --      0.0010                 0.0305                 1.5208

                     37                     38                     39
                      A                      A                      A
 Frequencies --   1028.4169              1035.3383              1052.9436
 Red. masses --      1.7744                 2.8016                 2.2722
 Frc consts  --      1.1057                 1.7694                 1.4843
 IR Inten    --      1.6387                 2.4929                 6.5616

                     40                     41                     42
                      A                      A                      A
 Frequencies --   1109.4821              1145.4881              1163.9161
 Red. masses --      1.6260                 1.4033                 3.7376
 Frc consts  --      1.1793                 1.0849                 2.9832
 IR Inten    --      5.0228                 5.3197                14.1186

                     43                     44                     45
                      A                      A                      A
 Frequencies --   1200.9730              1206.0418              1217.7819
 Red. masses --      1.1096                 1.3749                 1.1478
 Frc consts  --      0.9429                 1.1783                 1.0029
 IR Inten    --      0.0112                76.9864                 1.6254

                     46                     47                     48
                      A                      A                      A
 Frequencies --   1238.2594              1325.8654              1328.9352
 Red. masses --      2.1245                 3.4470                 2.6849
 Frc consts  --      1.9193                 3.5702                 2.7937
 IR Inten    --     70.8546                 0.1352                 6.5933

                     49                     50                     51
                      A                      A                      A
 Frequencies --   1340.3654              1342.4148              1364.1206
 Red. masses --      3.3849                 2.2141                 1.6551
 Frc consts  --      3.5830                 2.3508                 1.8146
 IR Inten    --     24.5480                20.5194                 0.5053

                     52                     53                     54
                      A                      A                      A
 Frequencies --   1428.1296              1455.9524              1481.6471
 Red. masses --      1.5623                 1.9571                 2.1730
 Frc consts  --      1.8774                 2.4443                 2.8106
 IR Inten    --     16.6149                 7.2702                 4.3541

                     55                     56                     57
                      A                      A                      A
 Frequencies --   1531.4161              1550.8214              1597.7282
 Red. masses --      2.1529                 2.5804                 6.1665
 Frc consts  --      2.9748                 3.6564                 9.2745
 IR Inten    --     13.7798                 6.4272                29.1065

                     58                     59                     60
                      A                      A                      A
 Frequencies --   1618.9531              1649.9400              1652.8168
 Red. masses --      5.0111                 5.2958                 5.4204
 Frc consts  --      7.7384                 8.4942                 8.7243
 IR Inten    --      1.1776                 2.4662               228.8213

                     61                     62                     63
                      A                      A                      A
 Frequencies --   1770.1605              2312.2992              2915.4019
 Red. masses --      9.7703                11.9977                 1.0841
 Frc consts  --     18.0377                37.7952                 5.4289
 IR Inten    --    412.1647                27.9272               146.8443

                     64                     65                     66
                      A                      A                      A
 Frequencies --   3177.0414              3182.0276              3190.6510
 Red. masses --      1.0891                 1.0857                 1.0886
 Frc consts  --      6.4770                 6.4768                 6.5296
 IR Inten    --     11.3330                 1.1632                 4.9901

                     67                     68                     69
                      A                      A                      A
 Frequencies --   3201.5582              3203.1697              3208.8777
 Red. masses --      1.0920                 1.0884                 1.0943
 Frc consts  --      6.5949                 6.5797                 6.6390
 IR Inten    --     20.1058                 1.4524                22.6411

                     70                     71                     72
                      A                      A                      A
 Frequencies --   3211.6820              3213.5550              3218.4132
 Red. masses --      1.0935                 1.0976                 1.0950
 Frc consts  --      6.6456                 6.6782                 6.6827
 IR Inten    --      7.4474                12.4384                 3.1370

 - Thermochemistry -
 -------------------
 Temperature   298.150 Kelvin.  Pressure   1.00000 Atm.
 Atom     1 has atomic number  6 and mass  12.00000

 Molecular mass:   206.07317 amu.
 Principal axes and moments of inertia in atomic units:
                           1         2         3
     Eigenvalues --   685.33314********************
           X            0.99999   0.00330   0.00003
           Y           -0.00330   0.99999  -0.00046
           Z           -0.00003   0.00046   1.00000
 This molecule is an asymmetric top.
 Rotational symmetry number  1.
 Warning -- assumption of classical behavior for rotation
           may cause significant error
 Rotational temperatures (Kelvin)      0.12638     0.00749     0.00746
 Rotational constants (GHZ):           2.63338     0.15604     0.15539
    1 imaginary frequencies ignored.
 Zero-point vibrational energy     527243.5 (Joules/Mol)
                                  126.01421 (Kcal/Mol)
 Warning -- explicit consideration of  18 degrees of freedom as
           vibrations may cause significant error
 Vibrational temperatures:     48.61    54.58   128.66   188.60   219.89
          (Kelvin)            300.45   353.90   356.47   506.49   553.98
                              590.45   603.10   651.31   723.99   734.74
                              813.90   824.71   862.91   914.19   937.08
                             1010.90  1021.92  1049.32  1110.63  1187.65
                             1215.93  1228.64  1236.08  1252.43  1342.54
                             1402.05  1410.13  1433.56  1444.41  1457.89
                             1479.66  1489.62  1514.95  1596.30  1648.10
                             1674.61  1727.93  1735.22  1752.11  1781.58
                             1907.62  1912.04  1928.48  1931.43  1962.66
                             2054.76  2094.79  2131.76  2203.36  2231.28
                             2298.77  2329.31  2373.89  2378.03  2546.86
                             3326.88  4194.61  4571.05  4578.22  4590.63
                             4606.32  4608.64  4616.85  4620.89  4623.58
                             4630.57

 Zero-point correction=                           0.200816 (Hartree/Particle)
 Thermal correction to Energy=                    0.213022
 Thermal correction to Enthalpy=                  0.213966
 Thermal correction to Gibbs Free Energy=         0.160691
 Sum of electronic and zero-point Energies=           -652.627891
 Sum of electronic and thermal Energies=              -652.615686
 Sum of electronic and thermal Enthalpies=            -652.614742
 Sum of electronic and thermal Free Energies=         -652.668016

                     E (Thermal)             CV                S
                      KCal/Mol        Cal/Mol-Kelvin    Cal/Mol-Kelvin
 Total                  133.673             48.089            112.126
 Electronic               0.000              0.000              0.000
 Translational            0.889              2.981             41.873
 Rotational               0.889              2.981             32.887
 Vibrational            131.896             42.128             37.365
 Vibration     1          0.594              1.983              5.594
 Vibration     2          0.594              1.982              5.364
 Vibration     3          0.602              1.957              3.673
 Vibration     4          0.612              1.922              2.930
 Vibration     5          0.619              1.900              2.637
 Vibration     6          0.642              1.827              2.054
 Vibration     7          0.660              1.769              1.759
 Vibration     8          0.661              1.766              1.746
 Vibration     9          0.729              1.571              1.157
 Vibration    10          0.754              1.502              1.019
 Vibration    11          0.775              1.448              0.925
 Vibration    12          0.782              1.429              0.895
 Vibration    13          0.811              1.355              0.788
 Vibration    14          0.859              1.243              0.650
 Vibration    15          0.866              1.226              0.632
 Vibration    16          0.922              1.105              0.513
 Vibration    17          0.929              1.089              0.498
 Vibration    18          0.958              1.032              0.450

 Normal termination of Gaussian 09 at Fri Aug 25 01:13:57 2023.
