 Gaussian 09, Revision D.01,
 Gaussian 09:  EM64W-G09RevD.01 13-Apr-2013

 --------------------------------------------------
 # opt freq b3lyp/6-31+g(d) empiricaldispersion=gd3
 --------------------------------------------------

 -------------------
 Title Card Required
 -------------------
 Symbolic Z-matrix:
 Charge =  0 Multiplicity = 1

 SCF Done:  E(RB3LYP) =  -731.408444391     A.U. after   16 cycles
 SCF Done:  E(RB3LYP) =  -731.452292410     A.U. after   14 cycles
 SCF Done:  E(RB3LYP) =  -731.456880045     A.U. after   16 cycles
 SCF Done:  E(RB3LYP) =  -731.473756591     A.U. after   15 cycles
 SCF Done:  E(RB3LYP) =  -731.472790001     A.U. after   16 cycles
 SCF Done:  E(RB3LYP) =  -731.477144743     A.U. after   13 cycles
 SCF Done:  E(RB3LYP) =  -731.472266935     A.U. after   16 cycles
 SCF Done:  E(RB3LYP) =  -731.477365818     A.U. after   12 cycles
 SCF Done:  E(RB3LYP) =  -731.477120359     A.U. after   14 cycles
 SCF Done:  E(RB3LYP) =  -731.477825912     A.U. after   11 cycles
 SCF Done:  E(RB3LYP) =  -731.478083644     A.U. after   13 cycles
 SCF Done:  E(RB3LYP) =  -731.477624662     A.U. after   16 cycles
 SCF Done:  E(RB3LYP) =  -731.478164690     A.U. after   15 cycles
 SCF Done:  E(RB3LYP) =  -731.478198803     A.U. after   13 cycles
 SCF Done:  E(RB3LYP) =  -731.478208936     A.U. after   12 cycles
 SCF Done:  E(RB3LYP) =  -731.478210004     A.U. after   10 cycles
 SCF Done:  E(RB3LYP) =  -731.478210097     A.U. after    9 cycles
 Optimization completed.
    -- Stationary point found.
 Normal termination of Gaussian 09 at Thu Aug 24 20:28:40 2023.

 ---------------------------------------------------------------------
 #N Geom=AllCheck Guess=TCheck SCRF=Check GenChk RB3LYP/6-31+G(d) Freq
 ---------------------------------------------------------------------

 Structure from the checkpoint file:  "D:\machine learning\molecule_14.chk"
 -------------------
 Title Card Required
 -------------------
 Charge =  0 Multiplicity = 1

                         Standard orientation:
 ---------------------------------------------------------------------
 Center     Atomic      Atomic             Coordinates (Angstroms)
 Number     Number       Type             X           Y           Z
 ---------------------------------------------------------------------
      1          6           0       -4.944059   -1.218697    0.000128
      2          6           0       -3.553001   -1.220096   -0.000069
      3          6           0       -2.836699   -0.003981    0.000273
      4          6           0       -3.563412    1.202748    0.000916
      5          6           0       -4.957291    1.187969    0.001148
      6          6           0       -5.673197   -0.017585    0.000575
      7          1           0       -5.477985   -2.166956    0.000089
      8          1           0       -3.005874   -2.158505   -0.000263
      9          1           0       -3.026431    2.146924    0.001486
     10          1           0       -5.498694    2.131434    0.001866
     11          6           0       -1.412804    0.003014    0.000224
     12          6           0       -0.194954    0.010992    0.000114
     13          6           0        1.227226    0.026558   -0.000005
     14          6           0        1.960396   -1.178620    0.000415
     15          6           0        1.934148    1.250588   -0.000467
     16          6           0        3.351748   -1.157464    0.000343
     17          1           0        1.427005   -2.124500    0.000819
     18          6           0        3.321928    1.261749   -0.000538
     19          1           0        1.377551    2.183096   -0.000797
     20          6           0        4.053846    0.060348   -0.000158
     21          1           0        3.887462   -2.101703    0.000676
     22          1           0        3.868570    2.199620   -0.000897
     23          6           0        5.549533    0.130136   -0.000194
     24          8           0        6.125918    1.211154   -0.000269
     25          6           0        6.345679   -1.164404   -0.000025
     26          1           0        6.111775   -1.769413    0.884792
     27          1           0        6.110844   -1.770552   -0.883773
     28          1           0        7.410169   -0.922157   -0.000657
     29          6           0       -7.183520   -0.037991   -0.001574
     30          1           0       -7.573786   -0.581290    0.868421
     31          1           0       -7.571175   -0.541109   -0.896738
     32          1           0       -7.600180    0.974293    0.020496
 ---------------------------------------------------------------------

 SCF Done:  E(RB3LYP) =  -731.478210097     A.U. after    2 cycles

 The electronic state is 1-A.
 Alpha  occ. eigenvalues --  -19.14761 -10.28593 -10.23706 -10.22775 -10.21731
 Alpha  occ. eigenvalues --  -10.21668 -10.21394 -10.21368 -10.21180 -10.21058
 Alpha  occ. eigenvalues --  -10.21013 -10.20879 -10.20669 -10.20525 -10.20508
 Alpha  occ. eigenvalues --  -10.20304 -10.19793 -10.19659  -1.04454  -0.88091
 Alpha  occ. eigenvalues --   -0.87658  -0.81305  -0.79735  -0.76838  -0.76160
 Alpha  occ. eigenvalues --   -0.75535  -0.73702  -0.70169  -0.65325  -0.62522
 Alpha  occ. eigenvalues --   -0.62346  -0.60968  -0.56445  -0.55833  -0.53373
 Alpha  occ. eigenvalues --   -0.48711  -0.48142  -0.47815  -0.47531  -0.46113
 Alpha  occ. eigenvalues --   -0.45072  -0.44038  -0.43994  -0.43556  -0.43365
 Alpha  occ. eigenvalues --   -0.42481  -0.40922  -0.40177  -0.39873  -0.38254
 Alpha  occ. eigenvalues --   -0.38252  -0.36751  -0.36606  -0.36271  -0.35709
 Alpha  occ. eigenvalues --   -0.32354  -0.28280  -0.27911  -0.27270  -0.26835
 Alpha  occ. eigenvalues --   -0.25931  -0.22437
 Alpha virt. eigenvalues --   -0.08351  -0.03477  -0.02613  -0.02381  -0.00269
 Alpha virt. eigenvalues --    0.00285   0.01256   0.01453   0.01692   0.02733
 Alpha virt. eigenvalues --    0.02925   0.03579   0.04286   0.04381   0.04396

 Mulliken charges:
               1
     1  C   -0.156950
     2  C    0.218555
     3  C   -0.020328
     4  C   -0.243453
     5  C   -0.771862
     6  C    0.361092
     7  H    0.180204
     8  H    0.192930
     9  H    0.194479
    10  H    0.178805
    11  C   -0.028013
    12  C   -0.029869
    13  C    0.019832
    14  C   -0.633578
    15  C   -0.278426
    16  C   -0.880764
    17  H    0.195429
    18  C    0.123544
    19  H    0.197950
    20  C    0.796311
    21  H    0.185590
    22  H    0.223051
    23  C    0.672997
    24  O   -0.440571
    25  C   -0.891521
    26  H    0.227664
    27  H    0.227629
    28  H    0.242195
    29  C   -0.721992
    30  H    0.225360
    31  H    0.226491
    32  H    0.207217
 Sum of Mulliken charges =   0.00000

 Dipole moment (field-independent basis, Debye):
    X=             -3.8104    Y=             -2.5201    Z=             -0.0027  Tot=              4.5684
 Quadrupole moment (field-independent basis, Debye-Ang):
   XX=           -102.9857   YY=            -97.9400   ZZ=           -111.2391
   XY=            -16.1831   XZ=              0.0236   YZ=              0.0007

  Exact polarizability: 457.806   3.761 186.400   0.047   0.001 106.425
 Approx polarizability: 606.118  17.624 321.530   0.052   0.002 160.298

 ******    1 imaginary frequencies (negative Signs) ******

                      1                      2                      3
                      A                      A                      A
 Frequencies --    -24.9606                24.3548                28.8955
 Red. masses --      1.0435                 3.5966                 5.7106
 Frc consts  --      0.0004                 0.0013                 0.0028
 IR Inten    --      0.1292                 1.0816                 0.0028

                      4                      5                      6
                      A                      A                      A
 Frequencies --     30.8899                64.9157                77.9261
 Red. masses --      5.1421                 3.8910                 5.1052
 Frc consts  --      0.0029                 0.0097                 0.0183
 IR Inten    --      0.2544                 3.1450                 1.3715

                      7                      8                      9
                      A                      A                      A
 Frequencies --    117.2115               157.2580               178.7773
 Red. masses --      5.5070                 5.2298                 1.0369
 Frc consts  --      0.0446                 0.0762                 0.0195
 IR Inten    --      0.9671                 0.3912                 0.1309

                     10                     11                     12
                      A                      A                      A
 Frequencies --    201.7442               228.3516               241.7278
 Red. masses --      6.1005                 4.7159                 4.8342
 Frc consts  --      0.1463                 0.1449                 0.1664
 IR Inten    --      0.4098                 6.3090                 0.3843

                     13                     14                     15
                      A                      A                      A
 Frequencies --    338.7317               347.0399               387.7971
 Red. masses --      2.8364                 5.2431                 4.7068
 Frc consts  --      0.1917                 0.3720                 0.4170
 IR Inten    --      0.0208                 2.4612                 3.4244

                     16                     17                     18
                      A                      A                      A
 Frequencies --    413.3049               414.7509               438.2993
 Red. masses --      2.9327                 2.9282                 4.2346
 Frc consts  --      0.2952                 0.2968                 0.4793
 IR Inten    --      0.0081                 0.0024                 1.2526

                     19                     20                     21
                      A                      A                      A
 Frequencies --    449.2020               494.4911               521.1536
 Red. masses --      5.6764                 5.0965                 3.1110
 Frc consts  --      0.6748                 0.7342                 0.4978
 IR Inten    --      8.1495                 0.4236                14.2364

                     22                     23                     24
                      A                      A                      A
 Frequencies --    540.9830               555.2544               557.4851
 Red. masses --      6.9543                 3.8572                 6.4269
 Frc consts  --      1.1991                 0.7007                 1.1768
 IR Inten    --      1.3353                 5.1428                 1.4038

                     25                     26                     27
                      A                      A                      A
 Frequencies --    603.8057               625.1278               651.9662
 Red. masses --      2.3054                 4.2817                 7.2380
 Frc consts  --      0.4952                 0.9858                 1.8127
 IR Inten    --     15.0302                26.7742                 0.4805

                     28                     29                     30
                      A                      A                      A
 Frequencies --    659.1247               717.7061               728.3854
 Red. masses --      7.1068                 3.3318                 5.0003
 Frc consts  --      1.8191                 1.0112                 1.5630
 IR Inten    --      0.2717                 1.2572                13.2636

                     31                     32                     33
                      A                      A                      A
 Frequencies --    736.0152               805.2887               831.0242
 Red. masses --      3.8932                 5.3760                 1.4656
 Frc consts  --      1.2426                 2.0541                 0.5963
 IR Inten    --      0.0973                 0.1103                38.5920

                     34                     35                     36
                      A                      A                      A
 Frequencies --    842.7992               846.8334               861.0369
 Red. masses --      1.3659                 1.2523                 1.4025
 Frc consts  --      0.5716                 0.5291                 0.6126
 IR Inten    --     27.4539                 0.3371                31.7720

                     37                     38                     39
                      A                      A                      A
 Frequencies --    868.5537               966.9355               969.0022
 Red. masses --      6.3774                 1.2987                 2.2612
 Frc consts  --      2.8346                 0.7154                 1.2509
 IR Inten    --      0.1964                 0.4028                75.6285

                     40                     41                     42
                      A                      A                      A
 Frequencies --    973.3318               976.0023              1000.5882
 Red. masses --      1.3271                 1.3573                 1.3349
 Frc consts  --      0.7407                 0.7618                 0.7874
 IR Inten    --      0.0012                 0.0130                 0.4408

                     43                     44                     45
                      A                      A                      A
 Frequencies --   1016.9886              1034.1527              1039.0738
 Red. masses --      1.4188                 3.0262                 2.8728
 Frc consts  --      0.8645                 1.9069                 1.8275
 IR Inten    --      7.7771                 1.2652                 4.5191

                     46                     47                     48
                      A                      A                      A
 Frequencies --   1053.5920              1071.0584              1097.4698
 Red. masses --      1.8399                 1.5249                 2.4772
 Frc consts  --      1.2033                 1.0307                 1.7579
 IR Inten    --      0.7003                 4.0218                 3.4180

                     49                     50                     51
                      A                      A                      A
 Frequencies --   1153.3140              1155.2827              1163.6848
 Red. masses --      1.3577                 1.3945                 3.5383
 Frc consts  --      1.0640                 1.0966                 2.8230
 IR Inten    --      4.5404                 6.9329                30.3354

                     52                     53                     54
                      A                      A                      A
 Frequencies --   1224.2539              1227.2715              1237.0784
 Red. masses --      1.1388                 1.2081                 2.9950
 Frc consts  --      1.0057                 1.0721                 2.7005
 IR Inten    --      4.0859                53.2391                 3.3491

                     55                     56                     57
                      A                      A                      A
 Frequencies --   1287.9445              1324.8541              1331.0173
 Red. masses --      3.5282                 4.0423                 3.7000
 Frc consts  --      3.4483                 4.1803                 3.8620
 IR Inten    --    390.5376                 0.0682                10.7432

                     58                     59                     60
                      A                      A                      A
 Frequencies --   1347.7470              1349.0084              1354.5575
 Red. masses --      1.7708                 1.5215                 3.5691
 Frc consts  --      1.8951                 1.6313                 3.8584
 IR Inten    --      6.6354                 2.6087                13.1122

                     61                     62                     63
                      A                      A                      A
 Frequencies --   1410.2583              1437.4849              1447.8091
 Red. masses --      1.3201                 1.2371                 2.5656
 Frc consts  --      1.5469                 1.5061                 3.1685
 IR Inten    --     48.2097                 0.3296                 2.0991

                     64                     65                     66
                      A                      A                      A
 Frequencies --   1449.9355              1495.4415              1503.8110
 Red. masses --      2.6783                 1.0637                 1.0470
 Frc consts  --      3.3175                 1.4016                 1.3950
 IR Inten    --     31.4771                15.1788                12.0794

                     67                     68                     69
                      A                      A                      A
 Frequencies --   1507.2686              1513.6616              1540.9046
 Red. masses --      1.0437                 1.1154                 2.2690
 Frc consts  --      1.3970                 1.5057                 3.1742
 IR Inten    --      7.3350                10.2799                10.4491

                     70                     71                     72
                      A                      A                      A
 Frequencies --   1560.8126              1589.9649              1601.1031
 Red. masses --      2.7369                 5.8823                 5.0692
 Frc consts  --      3.9284                 8.7614                 7.6565
 IR Inten    --     17.5767                27.5255                 1.9982

                     73                     74                     75
                      A                      A                      A
 Frequencies --   1648.5360              1661.9782              1747.8398
 Red. masses --      5.3111                 5.5913                10.4471
 Frc consts  --      8.5042                 9.0995                18.8040
 IR Inten    --    269.0910                11.5192               295.6414

                     76                     77                     78
                      A                      A                      A
 Frequencies --   2301.5305              3037.4972              3047.0650
 Red. masses --     11.9970                 1.0372                 1.0384
 Frc consts  --     37.4418                 5.6384                 5.6804
 IR Inten    --     93.3060                48.6107                 3.6216

                     79                     80                     81
                      A                      A                      A
 Frequencies --   3088.3907              3105.7169              3118.1798
 Red. masses --      1.1007                 1.0999                 1.1010
 Frc consts  --      6.1855                 6.2509                 6.3073
 IR Inten    --     15.2545                 8.8171                18.9940

                     82                     83                     84
                      A                      A                      A
 Frequencies --   3162.0575              3174.0643              3178.4507
 Red. masses --      1.1011                 1.0888                 1.0888
 Frc consts  --      6.4866                 6.4627                 6.4808
 IR Inten    --     17.1536                19.7494                23.4823

                     85                     86                     87
                      A                      A                      A
 Frequencies --   3198.6255              3202.3786              3204.6374
 Red. masses --      1.0878                 1.0891                 1.0932
 Frc consts  --      6.5573                 6.5804                 6.6150
 IR Inten    --      6.9114                 3.3362                17.6490

                     88                     89                     90
                      A                      A                      A
 Frequencies --   3206.7529              3215.5300              3221.6343
 Red. masses --      1.0941                 1.0941                 1.0939
 Frc consts  --      6.6286                 6.6650                 6.6892
 IR Inten    --      2.4374                12.3775                 2.1770

 - Thermochemistry -
 -------------------
 Temperature   298.150 Kelvin.  Pressure   1.00000 Atm.
 Atom     1 has atomic number  6 and mass  12.00000

 Molecular mass:   234.10447 amu.
 Principal axes and moments of inertia in atomic units:
                           1         2         3
     Eigenvalues --   819.92548********************
           X            0.99998  -0.00625   0.00001
           Y            0.00625   0.99998   0.00000
           Z           -0.00001   0.00000   1.00000
 This molecule is an asymmetric top.
 Rotational symmetry number  1.
 Warning -- assumption of classical behavior for rotation
           may cause significant error
 Rotational temperatures (Kelvin)      0.10564     0.00543     0.00517
 Rotational constants (GHZ):           2.20110     0.11317     0.10778
    1 imaginary frequencies ignored.
 Zero-point vibrational energy     673029.5 (Joules/Mol)
                                  160.85791 (Kcal/Mol)
 Warning -- explicit consideration of  24 degrees of freedom as
           vibrations may cause significant error
 Vibrational temperatures:     35.04    41.57    44.44    93.40   112.12
          (Kelvin)            168.64   226.26   257.22   290.26   328.55
                              347.79   487.36   499.31   557.95   594.65
                              596.73   630.61   646.30   711.46   749.82
                              778.35   798.89   802.10   868.74   899.42
                              938.03   948.33  1032.62  1047.98  1058.96
                             1158.63  1195.66  1212.60  1218.40  1238.84
                             1249.65  1391.20  1394.18  1400.41  1404.25
                             1439.62  1463.22  1487.91  1494.99  1515.88
                             1541.01  1579.01  1659.36  1662.19  1674.28
                             1761.43  1765.77  1779.88  1853.06  1906.17
                             1915.03  1939.10  1940.92  1948.90  2029.04
                             2068.22  2083.07  2086.13  2151.60  2163.65
                             2168.62  2177.82  2217.02  2245.66  2287.60
                             2303.63  2371.87  2391.21  2514.75  3311.38
                             4370.28  4384.04  4443.50  4468.43  4486.36
                             4549.49  4566.76  4573.08  4602.10  4607.50
                             4610.75  4613.80  4626.42  4635.21

 Zero-point correction=                           0.256343 (Hartree/Particle)
 Thermal correction to Energy=                    0.271989
 Thermal correction to Enthalpy=                  0.272933
 Thermal correction to Gibbs Free Energy=         0.210791
 Sum of electronic and zero-point Energies=           -731.221867
 Sum of electronic and thermal Energies=              -731.206221
 Sum of electronic and thermal Enthalpies=            -731.205277
 Sum of electronic and thermal Free Energies=         -731.267419

                     E (Thermal)             CV                S
                      KCal/Mol        Cal/Mol-Kelvin    Cal/Mol-Kelvin
 Total                  170.676             59.858            130.790
 Electronic               0.000              0.000              0.000
 Translational            0.889              2.981             42.254
 Rotational               0.889              2.981             33.748
 Vibrational            168.898             53.897             54.789
 Vibration     1          0.593              1.985              6.243
 Vibration     2          0.593              1.984              5.904
 Vibration     3          0.594              1.984              5.771
 Vibration     4          0.597              1.971              4.302
 Vibration     5          0.599              1.964              3.942
 Vibration     6          0.608              1.935              3.146
 Vibration     7          0.621              1.895              2.583
 Vibration     8          0.629              1.868              2.341
 Vibration     9          0.639              1.837              2.117
 Vibration    10          0.651              1.798              1.892
 Vibration    11          0.658              1.776              1.790
 Vibration    12          0.719              1.598              1.218
 Vibration    13          0.725              1.581              1.180
 Vibration    14          0.756              1.496              1.009
 Vibration    15          0.777              1.441              0.915
 Vibration    16          0.778              1.438              0.910
 Vibration    17          0.798              1.387              0.832
 Vibration    18          0.808              1.363              0.798
 Vibration    19          0.850              1.262              0.672
 Vibration    20          0.876              1.203              0.607
 Vibration    21          0.896              1.159              0.563
 Vibration    22          0.911              1.128              0.533
 Vibration    23          0.913              1.123              0.529
 Vibration    24          0.962              1.024              0.443

 Normal termination of Gaussian 09 at Thu Aug 24 21:04:54 2023.
