 Gaussian 09, Revision D.01,
 Gaussian 09:  EM64W-G09RevD.01 13-Apr-2013

 --------------------------------------------------------------------
 # opt freq b3lyp/6-31+g(d) geom=connectivity empiricaldispersion=gd3
 --------------------------------------------------------------------

 -------------------
 Title Card Required
 -------------------
 Symbolic Z-matrix:
 Charge =  0 Multiplicity = 1

 SCF Done:  E(RB3LYP) =  -769.463265052     A.U. after   15 cycles
 SCF Done:  E(RB3LYP) =  -769.497979460     A.U. after   14 cycles
 SCF Done:  E(RB3LYP) =  -769.503820046     A.U. after   16 cycles
 SCF Done:  E(RB3LYP) =  -769.501070232     A.U. after   16 cycles
 SCF Done:  E(RB3LYP) =  -769.506634244     A.U. after   14 cycles
 SCF Done:  E(RB3LYP) =  -769.507155947     A.U. after   14 cycles
 SCF Done:  E(RB3LYP) =  -769.506126526     A.U. after   16 cycles
 SCF Done:  E(RB3LYP) =  -769.507366924     A.U. after   13 cycles
 SCF Done:  E(RB3LYP) =  -769.507585230     A.U. after   13 cycles
 SCF Done:  E(RB3LYP) =  -769.506752540     A.U. after   15 cycles
 SCF Done:  E(RB3LYP) =  -769.513134109     A.U. after   15 cycles
 SCF Done:  E(RB3LYP) =  -769.513136966     A.U. after   13 cycles
 SCF Done:  E(RB3LYP) =  -769.513137246     A.U. after   11 cycles
 SCF Done:  E(RB3LYP) =  -769.513137268     A.U. after    8 cycles
 SCF Done:  E(RB3LYP) =  -769.513137352     A.U. after   10 cycles
 SCF Done:  E(RB3LYP) =  -769.513137540     A.U. after    9 cycles
 SCF Done:  E(RB3LYP) =  -769.513137832     A.U. after   10 cycles
 SCF Done:  E(RB3LYP) =  -769.513137834     A.U. after   10 cycles
 SCF Done:  E(RB3LYP) =  -769.513137854     A.U. after    8 cycles
 Optimization completed on the basis of negligible forces.
    -- Stationary point found.
 Normal termination of Gaussian 09 at Sat Aug 26 06:38:27 2023.

 ---------------------------------------------------------------------
 #N Geom=AllCheck Guess=TCheck SCRF=Check GenChk RB3LYP/6-31+G(d) Freq
 ---------------------------------------------------------------------

 Structure from the checkpoint file:  "D:\machine learning\molecule_50.chk"
 -------------------
 Title Card Required
 -------------------
 Charge =  0 Multiplicity = 1

                         Standard orientation:
 ---------------------------------------------------------------------
 Center     Atomic      Atomic             Coordinates (Angstroms)
 Number     Number       Type             X           Y           Z
 ---------------------------------------------------------------------
      1          6           0        5.915228   -1.258975   -0.002924
      2          6           0        3.824516   -0.014418   -0.005854
      3          6           0        4.570857    1.183004   -0.013495
      4          6           0        5.962688    1.146836   -0.014783
      5          6           0        6.661610   -0.070481   -0.006559
      6          1           0        6.433750   -2.215556   -0.002571
      7          1           0        4.047376    2.134662   -0.021801
      8          1           0        6.518678    2.082124   -0.023936
      9          6           0        2.403436    0.014193   -0.005989
     10          6           0        1.180962    0.040732   -0.005336
     11          6           0       -0.179136    0.069781   -0.004174
     12          6           0       -1.401819    0.095432   -0.002734
     13          6           0       -2.821538    0.131391   -0.000788
     14          6           0       -3.515944    1.364343    0.006432
     15          6           0       -4.901600    1.399104    0.008581
     16          1           0       -2.950498    2.291460    0.010398
     17          6           0       -4.970950   -1.028381   -0.003612
     18          6           0       -5.640817    0.203854    0.003596
     19          1           0       -5.439998    2.341984    0.014184
     20          1           0       -5.518029   -1.964224   -0.007596
     21          6           0        4.522761   -1.240205   -0.001593
     22          1           0        3.962217   -2.170565   -0.000589
     23          6           0       -3.576090   -1.056855   -0.005755
     24          1           0       -3.060208   -2.012561   -0.011366
     25          6           0        8.171434   -0.099105    0.029052
     26          1           0        8.602120    0.762183   -0.493967
     27          1           0        8.539570   -0.070417    1.063891
     28          1           0        8.567211   -1.010170   -0.433367
     29          8           0       -6.996584    0.348635    0.006316
     30          6           0       -7.809515   -0.820116    0.001676
     31          1           0       -8.840592   -0.462807    0.004996
     32          1           0       -7.634058   -1.423519   -0.898921
     33          1           0       -7.631384   -1.432481    0.895673
 ---------------------------------------------------------------------

 SCF Done:  E(RB3LYP) =  -769.513137853     A.U. after    2 cycles

 The electronic state is 1-A.
 Alpha  occ. eigenvalues --  -19.19911 -10.26658 -10.25419 -10.22281 -10.22153
 Alpha  occ. eigenvalues --  -10.21172 -10.21097 -10.20913 -10.20735 -10.20647
 Alpha  occ. eigenvalues --  -10.20586 -10.20471 -10.20469 -10.20410 -10.20361
 Alpha  occ. eigenvalues --  -10.20110 -10.19991 -10.19986 -10.19376  -1.08199
 Alpha  occ. eigenvalues --   -0.87179  -0.87145  -0.80872  -0.79607  -0.77299
 Alpha  occ. eigenvalues --   -0.76435  -0.75609  -0.73828  -0.71441  -0.69393
 Alpha  occ. eigenvalues --   -0.63472  -0.62500  -0.61821  -0.60897  -0.58366
 Alpha  occ. eigenvalues --   -0.55186  -0.53636  -0.52004  -0.49840  -0.48276
 Alpha  occ. eigenvalues --   -0.47599  -0.47138  -0.46088  -0.43900  -0.43518
 Alpha  occ. eigenvalues --   -0.43134  -0.43003  -0.42872  -0.40326  -0.39780
 Alpha  occ. eigenvalues --   -0.39763  -0.38095  -0.37802  -0.36274  -0.35845
 Alpha  occ. eigenvalues --   -0.35384  -0.34382  -0.33547  -0.33107  -0.28838
 Alpha  occ. eigenvalues --   -0.26842  -0.26293  -0.24781  -0.24484  -0.20388
 Alpha virt. eigenvalues --   -0.06234  -0.02228  -0.01916  -0.01709  -0.01472
 Alpha virt. eigenvalues --   -0.00089   0.00552   0.01453   0.02039   0.02335
 Alpha virt. eigenvalues --    0.02396   0.03440   0.03545   0.03930   0.04410

 Mulliken charges:
               1
     1  C   -0.156773
     2  C    0.001681
     3  C   -0.241919
     4  C   -0.144948
     5  C    0.357770
     6  H    0.176915
     7  H    0.195181
     8  H    0.177303
     9  C   -1.269420
    10  C    1.126674
    11  C    1.128855
    12  C   -1.253504
    13  C    0.249688
    14  C   -0.419399
    15  C   -0.086324
    16  H    0.199061
    17  C    0.955764
    18  C   -0.083250
    19  H    0.195185
    20  H    0.180072
    21  C   -0.329899
    22  H    0.194949
    23  C   -1.198798
    24  H    0.197889
    25  C   -0.728679
    26  H    0.210546
    27  H    0.228904
    28  H    0.209451
    29  O   -0.372483
    30  C   -0.323700
    31  H    0.211365
    32  H    0.205926
    33  H    0.205919
 Sum of Mulliken charges =   0.00000

 Dipole moment (field-independent basis, Debye):
    X=             -0.7114    Y=             -1.2923    Z=              0.0460  Tot=              1.4759
 Quadrupole moment (field-independent basis, Debye-Ang):
   XX=            -65.8866   YY=           -101.3345   ZZ=           -118.1311
   XY=             10.0151   XZ=              0.4020   YZ=             -0.0077

  Exact polarizability: 581.066   0.735 184.431   0.769  -0.012 112.501
 Approx polarizability: 787.198  -6.319 306.542   0.769  -0.008 165.270

                      1                      2                      3
                      A                      A                      A
 Frequencies --     17.0547                23.5317                23.8581
 Red. masses --      3.5245                 5.5399                 5.3773
 Frc consts  --      0.0006                 0.0018                 0.0018
 IR Inten    --      0.3191                 1.0242                 0.8518

                      4                      5                      6
                      A                      A                      A
 Frequencies --     28.9709                58.9787                69.3182
 Red. masses --      1.0247                 4.4422                 5.4909
 Frc consts  --      0.0005                 0.0091                 0.0155
 IR Inten    --      0.3238                 0.0258                 0.0644

                      7                      8                      9
                      A                      A                      A
 Frequencies --     96.7894               141.7486               189.2066
 Red. masses --      3.9138                 5.1219                 5.6026
 Frc consts  --      0.0216                 0.0606                 0.1182
 IR Inten    --      2.5158                 1.5577                 0.0356

                     10                     11                     12
                      A                      A                      A
 Frequencies --    204.2330               210.9237               265.0761
 Red. masses --      7.1867                 3.6900                 1.4477
 Frc consts  --      0.1766                 0.0967                 0.0599
 IR Inten    --      0.3368                 1.5163                 0.3780

                     13                     14                     15
                      A                      A                      A
 Frequencies --    271.1206               308.7534               344.6447
 Red. masses --      3.7749                 3.0817                 2.9166
 Frc consts  --      0.1635                 0.1731                 0.2041
 IR Inten    --      2.6180                 0.2540                 0.0328

                     16                     17                     18
                      A                      A                      A
 Frequencies --    399.4268               403.8390               411.9955
 Red. masses --      5.6465                 6.7200                 2.9527
 Frc consts  --      0.5308                 0.6457                 0.2953
 IR Inten    --      5.4270                10.9768                 0.0215

                     19                     20                     21
                      A                      A                      A
 Frequencies --    422.1934               461.5806               487.1244
 Red. masses --      3.0554                 6.3717                 3.5282
 Frc consts  --      0.3209                 0.7998                 0.4933
 IR Inten    --      0.0875                10.6349                19.5047

                     22                     23                     24
                      A                      A                      A
 Frequencies --    500.5988               527.9880               534.1403
 Red. masses --      5.1871                 5.8995                 2.6007
 Frc consts  --      0.7659                 0.9690                 0.4372
 IR Inten    --      8.9742                 3.6498                 0.6246

                     25                     26                     27
                      A                      A                      A
 Frequencies --    596.9329               600.6340               634.8156
 Red. masses --      5.5705                 4.1547                 8.9676
 Frc consts  --      1.1695                 0.8831                 2.1292
 IR Inten    --     11.9339                13.7420                 0.2180

                     28                     29                     30
                      A                      A                      A
 Frequencies --    656.8864               668.6074               703.2510
 Red. masses --      7.1265                 8.5168                 5.0791
 Frc consts  --      1.8118                 2.2432                 1.4800
 IR Inten    --      0.8780                 0.1553                 9.6443

                     31                     32                     33
                      A                      A                      A
 Frequencies --    720.2184               725.8171               799.0441
 Red. masses --      3.4289                 3.8869                 4.9413
 Frc consts  --      1.0479                 1.2065                 1.8588
 IR Inten    --      1.7171                 1.3239                 0.1517

                     34                     35                     36
                      A                      A                      A
 Frequencies --    807.3380               819.7731               832.0283
 Red. masses --      5.3676                 1.2984                 4.2908
 Frc consts  --      2.0613                 0.5141                 1.7501
 IR Inten    --      8.1038                 6.4528                 8.0819

                     37                     38                     39
                      A                      A                      A
 Frequencies --    835.3955               846.1513               849.4484
 Red. masses --      1.8340                 1.2497                 1.8117
 Frc consts  --      0.7541                 0.5272                 0.7702
 IR Inten    --     46.8061                 0.0355                48.8101

                     40                     41                     42
                      A                      A                      A
 Frequencies --    952.1015               966.9030               970.8971
 Red. masses --      1.3358                 1.2997                 1.3255
 Frc consts  --      0.7134                 0.7159                 0.7362
 IR Inten    --      0.1390                 0.9118                 0.0403

                     43                     44                     45
                      A                      A                      A
 Frequencies --    974.8694              1000.9286              1020.3941
 Red. masses --      1.3576                 8.2072                 1.4053
 Frc consts  --      0.7602                 4.8446                 0.8621
 IR Inten    --      0.0016                 1.1295                 0.1075

                     46                     47                     48
                      A                      A                      A
 Frequencies --   1029.8648              1040.3651              1066.0087
 Red. masses --      2.7968                 2.7264                 5.6417
 Frc consts  --      1.7477                 1.7387                 3.7773
 IR Inten    --      0.6876                 3.8700                83.1963

                     49                     50                     51
                      A                      A                      A
 Frequencies --   1070.4770              1148.1879              1154.4454
 Red. masses --      1.5289                 1.3593                 1.3507
 Frc consts  --      1.0322                 1.0558                 1.0606
 IR Inten    --     24.1723                10.3543                 4.9930

                     52                     53                     54
                      A                      A                      A
 Frequencies --   1181.2584              1211.4817              1215.5107
 Red. masses --      1.2691                 1.2642                 1.4719
 Frc consts  --      1.0434                 1.0932                 1.2813
 IR Inten    --      1.0190                62.5618                45.5010

                     55                     56                     57
                      A                      A                      A
 Frequencies --   1222.5972              1235.3343              1243.2375
 Red. masses --      1.2504                 3.0326                 2.4678
 Frc consts  --      1.1012                 2.7267                 2.2474
 IR Inten    --      9.9025                 3.0778                24.4875

                     58                     59                     60
                      A                      A                      A
 Frequencies --   1293.1859              1322.4641              1332.6034
 Red. masses --      4.3707                 4.5504                 2.5319
 Frc consts  --      4.3065                 4.6888                 2.6491
 IR Inten    --    416.6934                 0.0298                72.7522

                     61                     62                     63
                      A                      A                      A
 Frequencies --   1345.4264              1349.7283              1391.8539
 Red. masses --      1.9276                 1.4899                 4.6328
 Frc consts  --      2.0558                 1.5992                 5.2879
 IR Inten    --     53.1208                 0.0745                21.0278

                     64                     65                     66
                      A                      A                      A
 Frequencies --   1438.5550              1448.2803              1458.7532
 Red. masses --      1.2342                 2.5048                 3.0044
 Frc consts  --      1.5049                 3.0954                 3.7668
 IR Inten    --      0.8580                 1.3157                 5.0314

                     67                     68                     69
                      A                      A                      A
 Frequencies --   1494.0307              1510.2019              1512.6752
 Red. masses --      1.1843                 1.1056                 1.0552
 Frc consts  --      1.5575                 1.4857                 1.4225
 IR Inten    --     26.9328                 9.7589                 7.2150

                     70                     71                     72
                      A                      A                      A
 Frequencies --   1519.4557              1526.7403              1548.0306
 Red. masses --      1.0458                 1.0645                 2.3463
 Frc consts  --      1.4226                 1.4619                 3.3127
 IR Inten    --      8.4420                71.4147               190.9508

                     73                     74                     75
                      A                      A                      A
 Frequencies --   1559.3903              1598.8061              1602.3084
 Red. masses --      2.7259                 5.0141                 6.3013
 Frc consts  --      3.9055                 7.5516                 9.5318
 IR Inten    --     23.4700                 0.6538                19.5556

                     76                     77                     78
                      A                      A                      A
 Frequencies --   1655.7707              1658.2898              2234.1021
 Red. masses --      5.4808                 5.4806                11.9986
 Frc consts  --      8.8531                 8.8797                35.2847
 IR Inten    --    173.9174                18.9951                12.1561

                     79                     80                     81
                      A                      A                      A
 Frequencies --   2309.3790              3024.3335              3033.5070
 Red. masses --     11.9955                 1.0342                 1.0406
 Frc consts  --     37.6929                 5.5732                 5.6417
 IR Inten    --     20.3416                88.0815                53.6428

                     82                     83                     84
                      A                      A                      A
 Frequencies --   3086.4506              3089.6077              3115.8876
 Red. masses --      1.1070                 1.0953                 1.1027
 Frc consts  --      6.2132                 6.1600                 6.3077
 IR Inten    --     38.0161                22.4646                16.7565

                     85                     86                     87
                      A                      A                      A
 Frequencies --   3159.1894              3174.8170              3175.5718
 Red. masses --      1.1001                 1.0888                 1.0888
 Frc consts  --      6.4688                 6.4657                 6.4692
 IR Inten    --     27.4907                14.1974                35.8599

                     88                     89                     90
                      A                      A                      A
 Frequencies --   3200.5899              3202.0512              3205.3985
 Red. masses --      1.0882                 1.0893                 1.0931
 Frc consts  --      6.5680                 6.5803                 6.6172
 IR Inten    --      8.7394                 4.0117                18.8931

                     91                     92                     93
                      A                      A                      A
 Frequencies --   3206.9777              3216.9724              3225.9343
 Red. masses --      1.0940                 1.0951                 1.0927
 Frc consts  --      6.6294                 6.6772                 6.6998
 IR Inten    --      0.8548                 8.9579                15.6240

 - Thermochemistry -
 -------------------
 Temperature   298.150 Kelvin.  Pressure   1.00000 Atm.
 Atom     1 has atomic number  6 and mass  12.00000

 Molecular mass:   246.10447 amu.
 Principal axes and moments of inertia in atomic units:
                           1         2         3
     Eigenvalues --   712.70045********************
           X            0.99999   0.00316   0.00012
           Y           -0.00316   0.99999  -0.00006
           Z           -0.00013   0.00006   1.00000
 This molecule is an asymmetric top.
 Rotational symmetry number  1.
 Warning -- assumption of classical behavior for rotation
           may cause significant error
 Rotational temperatures (Kelvin)      0.12153     0.00376     0.00365
 Rotational constants (GHZ):           2.53226     0.07826     0.07599
 Zero-point vibrational energy     690434.4 (Joules/Mol)
                                  165.01778 (Kcal/Mol)
 Warning -- explicit consideration of  26 degrees of freedom as
           vibrations may cause significant error
 Vibrational temperatures:     24.54    33.86    34.33    41.68    84.86
          (Kelvin)             99.73   139.26   203.94   272.23   293.85
                              303.47   381.38   390.08   444.23   495.87
                              574.69   581.03   592.77   607.44   664.11
                              700.86   720.25   759.66   768.51   858.85
                              864.18   913.36   945.11   961.98  1011.82
                             1036.23  1044.29  1149.64  1161.58  1179.47
                             1197.10  1201.95  1217.42  1222.17  1369.86
                             1391.16  1396.90  1402.62  1440.11  1468.12
                             1481.74  1496.85  1533.75  1540.18  1651.98
                             1660.99  1699.57  1743.05  1748.85  1759.04
                             1777.37  1788.74  1860.60  1902.73  1917.32
                             1935.77  1941.96  2002.56  2069.76  2083.75
                             2098.82  2149.57  2172.84  2176.40  2186.16
                             2196.64  2227.27  2243.61  2300.32  2305.36
                             2382.28  2385.91  3214.37  3322.68  4351.34
                             4364.53  4440.71  4445.25  4483.06  4545.36
                             4567.85  4568.93  4604.93  4607.03  4611.85
                             4614.12  4628.50  4641.39

 Zero-point correction=                           0.262973 (Hartree/Particle)
 Thermal correction to Energy=                    0.280226
 Thermal correction to Enthalpy=                  0.281170
 Thermal correction to Gibbs Free Energy=         0.213713
 Sum of electronic and zero-point Energies=           -769.250165
 Sum of electronic and thermal Energies=              -769.232912
 Sum of electronic and thermal Enthalpies=            -769.231968
 Sum of electronic and thermal Free Energies=         -769.299425

                     E (Thermal)             CV                S
                      KCal/Mol        Cal/Mol-Kelvin    Cal/Mol-Kelvin
 Total                  175.844             64.499            141.976
 Electronic               0.000              0.000              0.000
 Translational            0.889              2.981             42.403
 Rotational               0.889              2.981             34.323
 Vibrational            174.067             58.537             65.251
 Vibration     1          0.593              1.986              6.951
 Vibration     2          0.593              1.985              6.311
 Vibration     3          0.593              1.985              6.284
 Vibration     4          0.593              1.984              5.899
 Vibration     5          0.596              1.974              4.491
 Vibration     6          0.598              1.969              4.173
 Vibration     7          0.603              1.951              3.518
 Vibration     8          0.615              1.912              2.780
 Vibration     9          0.633              1.855              2.236
 Vibration    10          0.640              1.834              2.095
 Vibration    11          0.643              1.824              2.036
 Vibration    12          0.671              1.737              1.628
 Vibration    13          0.675              1.726              1.589
 Vibration    14          0.698              1.657              1.369
 Vibration    15          0.723              1.586              1.191
 Vibration    16          0.765              1.471              0.965
 Vibration    17          0.769              1.462              0.949
 Vibration    18          0.776              1.444              0.920
 Vibration    19          0.785              1.422              0.885
 Vibration    20          0.819              1.335              0.762
 Vibration    21          0.843              1.279              0.691
 Vibration    22          0.856              1.249              0.657
 Vibration    23          0.883              1.188              0.592
 Vibration    24          0.889              1.175              0.578
 Vibration    25          0.955              1.038              0.455
 Vibration    26          0.959              1.030              0.449

 Optimization completed on the basis of negligible forces.
    -- Stationary point found.
 Normal termination of Gaussian 09 at Sat Aug 26 07:21:03 2023.
