 Gaussian 09, Revision D.01,
 Gaussian 09:  EM64W-G09RevD.01 13-Apr-2013

 --------------------------------------------------
 # opt freq b3lyp/6-31+g(d) empiricaldispersion=gd3
 --------------------------------------------------

 -------------------
 Title Card Required
 -------------------
 Symbolic Z-matrix:
 Charge =  0 Multiplicity = 1

 SCF Done:  E(RB3LYP) =  -631.691172946     A.U. after   15 cycles
 SCF Done:  E(RB3LYP) =  -631.711596861     A.U. after   14 cycles
 SCF Done:  E(RB3LYP) =  -631.704925852     A.U. after   16 cycles
 SCF Done:  E(RB3LYP) =  -631.712071026     A.U. after   13 cycles
 SCF Done:  E(RB3LYP) =  -631.712143011     A.U. after   14 cycles
 SCF Done:  E(RB3LYP) =  -631.713211737     A.U. after   15 cycles
 SCF Done:  E(RB3LYP) =  -631.712717981     A.U. after   15 cycles
 SCF Done:  E(RB3LYP) =  -631.713332602     A.U. after   11 cycles
 SCF Done:  E(RB3LYP) =  -631.713421986     A.U. after   13 cycles
 SCF Done:  E(RB3LYP) =  -631.713447712     A.U. after   12 cycles
 SCF Done:  E(RB3LYP) =  -631.713449581     A.U. after   11 cycles
 SCF Done:  E(RB3LYP) =  -631.713449721     A.U. after   10 cycles
 SCF Done:  E(RB3LYP) =  -631.713449735     A.U. after    8 cycles
 Optimization completed.
    -- Stationary point found.
 Normal termination of Gaussian 09 at Thu Aug 24 17:35:51 2023.

 ---------------------------------------------------------------------
 #N Geom=AllCheck Guess=TCheck SCRF=Check GenChk RB3LYP/6-31+G(d) Freq
 ---------------------------------------------------------------------

 Structure from the checkpoint file:  "D:\machine learning\molecule_12.chk"
 -------------------
 Title Card Required
 -------------------
 Charge =  0 Multiplicity = 1

                         Standard orientation:
 ---------------------------------------------------------------------
 Center     Atomic      Atomic             Coordinates (Angstroms)
 Number     Number       Type             X           Y           Z
 ---------------------------------------------------------------------
      1          6           0        1.977579   -1.214388    0.000078
      2          6           0        1.258047   -0.000090   -0.000017
      3          6           0        1.977526    1.214287   -0.000066
      4          6           0        3.367378    1.217494   -0.000057
      5          6           0        4.063922   -0.000003    0.000011
      6          1           0        1.434062   -2.154064    0.000143
      7          1           0        1.433908    2.153904   -0.000108
      8          1           0        3.922272    2.150219   -0.000106
      9          6           0       -0.164780   -0.000078   -0.000021
     10          6           0       -1.382160   -0.000046   -0.000050
     11          6           0       -2.807119   -0.000012   -0.000039
     12          6           0       -3.522963   -1.215517   -0.000087
     13          6           0       -3.522907    1.215529    0.000056
     14          6           0       -4.916805   -1.210497   -0.000048
     15          1           0       -2.975645   -2.153655   -0.000154
     16          6           0       -4.916747    1.210574    0.000091
     17          1           0       -2.975544    2.153641    0.000101
     18          6           0       -5.618437    0.000054    0.000030
     19          1           0       -5.457499   -2.153338   -0.000088
     20          1           0       -5.457398    2.153439    0.000169
     21          1           0       -6.705206    0.000081    0.000065
     22          6           0        3.367461   -1.217512    0.000083
     23          1           0        3.922372   -2.150225    0.000147
     24          7           0        5.448075    0.000063    0.000005
     25          6           0        6.627030    0.000131    0.000002
 ---------------------------------------------------------------------

 SCF Done:  E(RB3LYP) =  -631.713449735     A.U. after    1 cycles

 The electronic state is 1-A.
 Alpha  occ. eigenvalues --  -14.39053 -10.27619 -10.24479 -10.23934 -10.23464
 Alpha  occ. eigenvalues --  -10.22762 -10.22761 -10.22578 -10.22578 -10.21483
 Alpha  occ. eigenvalues --  -10.21483 -10.21296 -10.21236 -10.21206 -10.21190
 Alpha  occ. eigenvalues --  -10.20943  -0.97981  -0.89018  -0.87877  -0.81847
 Alpha  occ. eigenvalues --   -0.79333  -0.78239  -0.76629  -0.74525  -0.69190
 Alpha  occ. eigenvalues --   -0.64575  -0.63638  -0.62513  -0.59112  -0.56647
 Alpha  occ. eigenvalues --   -0.54361  -0.50265  -0.49783  -0.47239  -0.47202
 Alpha  occ. eigenvalues --   -0.45542  -0.45278  -0.44122  -0.43808  -0.41970
 Alpha  occ. eigenvalues --   -0.39916  -0.39643  -0.38330  -0.37642  -0.36740
 Alpha  occ. eigenvalues --   -0.35573  -0.33018  -0.31923  -0.28934  -0.28649
 Alpha  occ. eigenvalues --   -0.28567  -0.27266  -0.23136
 Alpha virt. eigenvalues --   -0.08120  -0.03921  -0.03161  -0.02752  -0.00656
 Alpha virt. eigenvalues --    0.00285   0.00355   0.01449   0.02055   0.02153
 Alpha virt. eigenvalues --    0.02386   0.03083   0.03874   0.04196   0.04307

 Mulliken charges:
               1
     1  C   -0.523899
     2  C    0.199428
     3  C   -0.524047
     4  C    0.180936
     5  C   -0.086817
     6  H    0.203046
     7  H    0.203048
     8  H    0.204828
     9  C   -0.033005
    10  C    0.011599
    11  C    0.160958
    12  C   -0.274721
    13  C   -0.274795
    14  C   -0.165134
    15  H    0.193890
    16  C   -0.165158
    17  H    0.193890
    18  C   -0.196870
    19  H    0.185130
    20  H    0.185130
    21  H    0.183990
    22  C    0.180955
    23  H    0.204827
    24  N   -0.205961
    25  C   -0.041247
 Sum of Mulliken charges =   0.00000

 Dipole moment (field-independent basis, Debye):
    X=             -4.8855    Y=             -0.0002    Z=              0.0001  Tot=              4.8855
 Quadrupole moment (field-independent basis, Debye-Ang):
   XX=           -115.5897   YY=            -80.3153   ZZ=            -98.6878
   XY=             -0.0015   XZ=             -0.0002   YZ=              0.0000

  Exact polarizability: 410.278   0.000 161.381   0.000   0.000  90.200
 Approx polarizability: 572.662   0.000 274.217   0.001   0.000 133.177

                      1                      2                      3
                      A                      A                      A
 Frequencies --     24.4803                36.8968                37.7828
 Red. masses --      3.6377                 7.7181                 6.0014
 Frc consts  --      0.0013                 0.0062                 0.0050
 IR Inten    --      0.0000                 0.2002                 0.0858

                      4                      5                      6
                      A                      A                      A
 Frequencies --     99.7459               124.4326               175.6280
 Red. masses --      6.6400                 6.6712                 6.7116
 Frc consts  --      0.0389                 0.0609                 0.1220
 IR Inten    --      3.7596                 2.4275                 1.8285

                      7                      8                      9
                      A                      A                      A
 Frequencies --    183.1357               232.1177               293.2257
 Red. masses --      6.8463                 7.6429                 6.9362
 Frc consts  --      0.1353                 0.2426                 0.3514
 IR Inten    --      1.1765                 0.0042                 0.1803

                     10                     11                     12
                      A                      A                      A
 Frequencies --    387.8676               411.0451               414.7458
 Red. masses --      5.7496                 2.9080                 2.9878
 Frc consts  --      0.5096                 0.2895                 0.3028
 IR Inten    --      0.0045                 0.0000                 0.0000

                     13                     14                     15
                      A                      A                      A
 Frequencies --    454.4773               476.5032               478.8296
 Red. masses --      9.5309                 6.6824                 8.9473
 Frc consts  --      1.1599                 0.8939                 1.2087
 IR Inten    --      3.5530                 0.1559                13.4305

                     16                     17                     18
                      A                      A                      A
 Frequencies --    505.4996               547.9510               549.8414
 Red. masses --      6.5394                 2.7152                 7.4160
 Frc consts  --      0.9845                 0.4803                 1.3210
 IR Inten    --      0.0643                23.8342                 0.0618

                     19                     20                     21
                      A                      A                      A
 Frequencies --    567.9281               634.5642               651.1938
 Red. masses --      3.8671                 6.6049                 6.6667
 Frc consts  --      0.7349                 1.5670                 1.6656
 IR Inten    --      0.5941                 0.0004                 1.2157

                     22                     23                     24
                      A                      A                      A
 Frequencies --    659.8235               698.4155               725.7395
 Red. masses --      7.3606                 1.9904                 4.0284
 Frc consts  --      1.8881                 0.5720                 1.2501
 IR Inten    --      0.0007                33.9453                 0.4408

                     25                     26                     27
                      A                      A                      A
 Frequencies --    769.6041               784.6618               839.4561
 Red. masses --      1.7500                 6.3776                 1.2469
 Frc consts  --      0.6107                 2.3135                 0.5177
 IR Inten    --     46.9858                 2.7177                 0.0000

                     28                     29                     30
                      A                      A                      A
 Frequencies --    852.0805               857.5095               864.5008
 Red. masses --      1.2491                 1.6476                 6.2425
 Frc consts  --      0.5343                 0.7138                 2.7488
 IR Inten    --      0.0000                63.7802                 0.0004

                     31                     32                     33
                      A                      A                      A
 Frequencies --    930.7871               972.4752               976.5398
 Red. masses --      1.4007                 1.3245                 1.3490
 Frc consts  --      0.7150                 0.7380                 0.7579
 IR Inten    --      2.9311                 0.2432                 0.0000

                     34                     35                     36
                      A                      A                      A
 Frequencies --    979.5899              1003.4108              1012.7693
 Red. masses --      1.3665                 1.2853                 6.2626
 Frc consts  --      0.7726                 0.7624                 3.7846
 IR Inten    --      0.0000                 0.0252                 0.2065

                     37                     38                     39
                      A                      A                      A
 Frequencies --   1035.5709              1052.2283              1109.8658
 Red. masses --      2.8248                 2.2674                 1.6216
 Frc consts  --      1.7848                 1.4791                 1.1769
 IR Inten    --      1.8932                 4.5273                 5.1525

                     40                     41                     42
                      A                      A                      A
 Frequencies --   1144.4479              1162.6901              1200.8399
 Red. masses --      1.3671                 3.8148                 1.1090
 Frc consts  --      1.0549                 3.0384                 0.9422
 IR Inten    --      7.1523                 2.4147                 0.0143

                     43                     44                     45
                      A                      A                      A
 Frequencies --   1206.4975              1217.4110              1234.4216
 Red. masses --      1.4406                 1.1548                 2.2988
 Frc consts  --      1.2355                 1.0084                 2.0639
 IR Inten    --      2.7130                 0.3379                 8.4066

                     46                     47                     48
                      A                      A                      A
 Frequencies --   1320.0717              1327.3154              1338.5867
 Red. masses --      5.9664                 3.4422                 1.3735
 Frc consts  --      6.1257                 3.5731                 1.4500
 IR Inten    --      1.2758                 0.4293                 1.0996

                     49                     50                     51
                      A                      A                      A
 Frequencies --   1350.6042              1364.4323              1452.7485
 Red. masses --      3.9001                 1.7009                 2.8842
 Frc consts  --      4.1917                 1.8657                 3.5864
 IR Inten    --      6.0900                 0.5830                 2.2266

                     52                     53                     54
                      A                      A                      A
 Frequencies --   1482.0685              1529.8636              1550.7567
 Red. masses --      2.1887                 2.1474                 2.6504
 Frc consts  --      2.8325                 2.9612                 3.7553
 IR Inten    --      4.3652                 0.4970                89.8052

                     55                     56                     57
                      A                      A                      A
 Frequencies --   1593.9610              1616.9843              1646.0154
 Red. masses --      6.5510                 4.9614                 5.2896
 Frc consts  --      9.8065                 7.6430                 8.4438
 IR Inten    --      0.7048                 1.2824                 0.0947

                     58                     59                     60
                      A                      A                      A
 Frequencies --   1656.3051              2201.0035              2305.8007
 Red. masses --      5.5695                13.0034                11.9979
 Frc consts  --      9.0022                37.1149                37.5837
 IR Inten    --     22.3458               261.1367                36.3352

                     61                     62                     63
                      A                      A                      A
 Frequencies --   3182.4119              3190.7481              3201.7052
 Red. masses --      1.0857                 1.0885                 1.0919
 Frc consts  --      6.4784                 6.5294                 6.5947
 IR Inten    --      2.2629                 4.4075                18.1265

                     64                     65                     66
                      A                      A                      A
 Frequencies --   3206.9746              3207.5830              3208.6901
 Red. masses --      1.0890                 1.0889                 1.0943
 Frc consts  --      6.5989                 6.6010                 6.6383
 IR Inten    --      7.2347                 0.5709                23.9928

                     67                     68                     69
                      A                      A                      A
 Frequencies --   3213.6798              3222.4778              3224.0334
 Red. masses --      1.0976                 1.0952                 1.0960
 Frc consts  --      6.6791                 6.7005                 6.7119
 IR Inten    --     15.1730                 6.5483                 1.1525

 - Thermochemistry -
 -------------------
 Temperature   298.150 Kelvin.  Pressure   1.00000 Atm.
 Atom     1 has atomic number  6 and mass  12.00000

 Molecular mass:   203.07350 amu.
 Principal axes and moments of inertia in atomic units:
                           1         2         3
     Eigenvalues --   639.08701********************
           X            1.00000   0.00000   0.00000
           Y            0.00000   1.00000   0.00000
           Z            0.00000   0.00000   1.00000
 This molecule is an asymmetric top.
 Rotational symmetry number  1.
 Warning -- assumption of classical behavior for rotation
           may cause significant error
 Rotational temperatures (Kelvin)      0.13553     0.00793     0.00749
 Rotational constants (GHZ):           2.82394     0.16526     0.15613
 Zero-point vibrational energy     497491.3 (Joules/Mol)
                                  118.90327 (Kcal/Mol)
 Warning -- explicit consideration of  19 degrees of freedom as
           vibrations may cause significant error
 Vibrational temperatures:     35.22    53.09    54.36   143.51   179.03
          (Kelvin)            252.69   263.49   333.97   421.89   558.05
                              591.40   596.73   653.89   685.58   688.93
                              727.30   788.38   791.10   817.12   913.00
                              936.92   949.34  1004.86  1044.18  1107.29
                             1128.95  1207.79  1225.95  1233.76  1243.82
                             1339.19  1399.17  1405.02  1409.41  1443.68
                             1457.15  1489.95  1513.92  1596.85  1646.60
                             1672.85  1727.74  1735.88  1751.58  1776.06
                             1899.29  1909.71  1925.93  1943.22  1963.11
                             2090.18  2132.36  2201.13  2231.19  2293.35
                             2326.48  2368.25  2383.05  3166.75  3317.53
                             4578.78  4590.77  4606.53  4614.12  4614.99
                             4616.58  4623.76  4636.42  4638.66

 Zero-point correction=                           0.189484 (Hartree/Particle)
 Thermal correction to Energy=                    0.202479
 Thermal correction to Enthalpy=                  0.203423
 Thermal correction to Gibbs Free Energy=         0.147595
 Sum of electronic and zero-point Energies=           -631.523965
 Sum of electronic and thermal Energies=              -631.510971
 Sum of electronic and thermal Enthalpies=            -631.510027
 Sum of electronic and thermal Free Energies=         -631.565854

                     E (Thermal)             CV                S
                      KCal/Mol        Cal/Mol-Kelvin    Cal/Mol-Kelvin
 Total                  127.057             49.754            117.499
 Electronic               0.000              0.000              0.000
 Translational            0.889              2.981             41.830
 Rotational               0.889              2.981             32.756
 Vibrational            125.280             43.792             42.913
 Vibration     1          0.593              1.985              6.233
 Vibration     2          0.594              1.982              5.419
 Vibration     3          0.594              1.982              5.372
 Vibration     4          0.604              1.949              3.459
 Vibration     5          0.610              1.929              3.030
 Vibration     6          0.628              1.872              2.374
 Vibration     7          0.631              1.863              2.296
 Vibration     8          0.653              1.792              1.863
 Vibration     9          0.688              1.686              1.455
 Vibration    10          0.756              1.496              1.008
 Vibration    11          0.775              1.446              0.923
 Vibration    12          0.778              1.438              0.910
 Vibration    13          0.813              1.351              0.782
 Vibration    14          0.833              1.302              0.720
 Vibration    15          0.835              1.297              0.713
 Vibration    16          0.861              1.238              0.645
 Vibration    17          0.903              1.144              0.548
 Vibration    18          0.905              1.140              0.545
 Vibration    19          0.924              1.101              0.508

 Optimization completed.
    -- Stationary point found.
 Normal termination of Gaussian 09 at Thu Aug 24 17:58:26 2023.
