 Gaussian 09, Revision D.01,
 Gaussian 09:  EM64W-G09RevD.01 13-Apr-2013

 --------------------------------------------------------------------
 # opt freq b3lyp/6-31+g(d) geom=connectivity empiricaldispersion=gd3
 --------------------------------------------------------------------

 -------------------
 Title Card Required
 -------------------
 Symbolic Z-matrix:
 Charge =  0 Multiplicity = 1

 SCF Done:  E(RB3LYP) =  -441.608395858     A.U. after   14 cycles
 SCF Done:  E(RB3LYP) =  -441.689804035     A.U. after   13 cycles
 SCF Done:  E(RB3LYP) =  -441.710061176     A.U. after   13 cycles
 SCF Done:  E(RB3LYP) =  -441.712423693     A.U. after   13 cycles
 SCF Done:  E(RB3LYP) =  -441.713929832     A.U. after   13 cycles
 SCF Done:  E(RB3LYP) =  -441.715675956     A.U. after   13 cycles
 SCF Done:  E(RB3LYP) =  -441.717052392     A.U. after   12 cycles
 SCF Done:  E(RB3LYP) =  -441.717248034     A.U. after   12 cycles
 SCF Done:  E(RB3LYP) =  -441.718207720     A.U. after   11 cycles
 SCF Done:  E(RB3LYP) =  -441.718391438     A.U. after   11 cycles
 SCF Done:  E(RB3LYP) =  -441.719012470     A.U. after   11 cycles
 SCF Done:  E(RB3LYP) =  -441.719029553     A.U. after   11 cycles
 SCF Done:  E(RB3LYP) =  -441.719037432     A.U. after   12 cycles
 SCF Done:  E(RB3LYP) =  -441.719057587     A.U. after   12 cycles
 SCF Done:  E(RB3LYP) =  -441.719078125     A.U. after   11 cycles
 SCF Done:  E(RB3LYP) =  -441.719077308     A.U. after   11 cycles
 SCF Done:  E(RB3LYP) =  -441.719078997     A.U. after   10 cycles
 SCF Done:  E(RB3LYP) =  -441.719079013     A.U. after    8 cycles
 SCF Done:  E(RB3LYP) =  -441.719079006     A.U. after    8 cycles
 Optimization completed.
    -- Stationary point found.
 Normal termination of Gaussian 09 at Sat Sep 16 04:24:01 2023.

 ---------------------------------------------------------------------
 #N Geom=AllCheck Guess=TCheck SCRF=Check GenChk RB3LYP/6-31+G(d) Freq
 ---------------------------------------------------------------------

 Structure from the checkpoint file:  "D:\Reaction optimization project\source code\DFT\opti\ligand\input\molecule.chk"
 -------------------
 Title Card Required
 -------------------
 Charge =  0 Multiplicity = 1

                         Standard orientation:
 ---------------------------------------------------------------------
 Center     Atomic      Atomic             Coordinates (Angstroms)
 Number     Number       Type             X           Y           Z
 ---------------------------------------------------------------------
      1          6           0       -0.493366   -0.448051    0.348349
      2          6           0        0.647765    0.316339   -0.356114
      3          7           0        0.798189    1.702052    0.137366
      4          6           0        1.979022   -0.439834   -0.135827
      5          8           0        2.870231    0.215918    0.622484
      6          8           0        2.184345   -1.539699   -0.599313
      7          1           0       -0.522715   -0.140918    1.405997
      8          1           0        0.467763    0.290606   -1.439084
      9          1           0       -0.014514    2.019256    0.655793
     10          1           0        0.962457    2.364149   -0.616570
     11          1           0        2.434069    1.081200    0.837327
     12          6           0       -1.890493   -0.292983   -0.286451
     13          1           0       -1.820061   -0.677391   -1.315618
     14          6           0       -2.382110    1.160628   -0.361855
     15          1           0       -1.731074    1.785048   -0.984415
     16          1           0       -3.389153    1.206029   -0.793410
     17          1           0       -2.435888    1.610080    0.640377
     18          6           0       -2.902537   -1.162836    0.475460
     19          1           0       -3.892123   -1.120108    0.004785
     20          1           0       -2.587257   -2.212742    0.503754
     21          1           0       -3.010947   -0.816882    1.512455
     22          1           0       -0.234179   -1.512019    0.340301
 ---------------------------------------------------------------------

 SCF Done:  E(RB3LYP) =  -441.719079006     A.U. after    1 cycles

 The electronic state is 1-A.
 Alpha  occ. eigenvalues --  -19.19208 -19.13771 -14.36616 -10.31664 -10.25204
 Alpha  occ. eigenvalues --  -10.21131 -10.20751 -10.19689 -10.18941  -1.10019
 Alpha  occ. eigenvalues --   -1.01854  -0.92585  -0.82530  -0.75358  -0.70180
 Alpha  occ. eigenvalues --   -0.66640  -0.59864  -0.58661  -0.53075  -0.52801
 Alpha  occ. eigenvalues --   -0.50333  -0.47497  -0.45587  -0.43851  -0.43569
 Alpha  occ. eigenvalues --   -0.42882  -0.40243  -0.39299  -0.38442  -0.37748
 Alpha  occ. eigenvalues --   -0.34702  -0.34502  -0.34177  -0.31333  -0.30762
 Alpha  occ. eigenvalues --   -0.26326
 Alpha virt. eigenvalues --   -0.01719  -0.00161   0.00626   0.01433   0.02144
 Alpha virt. eigenvalues --    0.03786   0.04377   0.04475   0.04935   0.06003
 Alpha virt. eigenvalues --    0.07264   0.07934   0.08236   0.08846   0.09572

 Mulliken charges:
               1
     1  C   -0.686900
     2  C    0.251876
     3  N   -1.036724
     4  C    0.367897
     5  O   -0.555156
     6  O   -0.446324
     7  H    0.211187
     8  H    0.219092
     9  H    0.408261
    10  H    0.408292
    11  H    0.513589
    12  C    0.120669
    13  H    0.194464
    14  C   -0.658931
    15  H    0.207151
    16  H    0.209907
    17  H    0.202608
    18  C   -0.794029
    19  H    0.204514
    20  H    0.208501
    21  H    0.208421
    22  H    0.241636
 Sum of Mulliken charges =   0.00000

 Dipole moment (field-independent basis, Debye):
    X=             -4.2759    Y=              4.0037    Z=             -0.0202  Tot=              5.8577
 Quadrupole moment (field-independent basis, Debye-Ang):
   XX=            -68.9665   YY=            -57.5241   ZZ=            -56.5045
   XY=              7.6695   XZ=             -0.1378   YZ=             -2.6411

  Exact polarizability:  97.009  -0.284  88.195   1.692   2.824  73.468
 Approx polarizability: 114.854  -1.045 124.387   2.972   9.735 111.159

                      1                      2                      3
                      A                      A                      A
 Frequencies --     43.6851                70.6052               108.4142
 Red. masses --      3.9153                 3.6454                 2.9803
 Frc consts  --      0.0044                 0.0107                 0.0206
 IR Inten    --      0.6810                 2.4124                 5.0485

                      4                      5                      6
                      A                      A                      A
 Frequencies --    178.7592               235.5613               239.3127
 Red. masses --      3.1625                 2.2034                 1.2502
 Frc consts  --      0.0595                 0.0720                 0.0422
 IR Inten    --      3.7799                 0.0797                 0.1770

                      7                      8                      9
                      A                      A                      A
 Frequencies --    276.2049               323.8591               330.2569
 Red. masses --      1.1765                 1.3186                 2.7851
 Frc consts  --      0.0529                 0.0815                 0.1790
 IR Inten    --      9.7813                 2.6949                 1.1500

                     10                     11                     12
                      A                      A                      A
 Frequencies --    360.1624               412.1475               439.0685
 Red. masses --      3.3148                 2.2828                 1.8844
 Frc consts  --      0.2533                 0.2285                 0.2140
 IR Inten    --     18.8802                 1.4001                 0.7145

                     13                     14                     15
                      A                      A                      A
 Frequencies --    455.5409               551.1190               656.9549
 Red. masses --      3.0576                 4.1835                 4.7918
 Frc consts  --      0.3738                 0.7486                 1.2185
 IR Inten    --      1.1145                 2.2896                 5.5250

                     16                     17                     18
                      A                      A                      A
 Frequencies --    721.2186               815.8524               858.6090
 Red. masses --      5.4986                 2.9913                 1.7464
 Frc consts  --      1.6852                 1.1731                 0.7586
 IR Inten    --     10.5099                 8.7100                71.8548

                     19                     20                     21
                      A                      A                      A
 Frequencies --    883.5885               905.0170               935.5890
 Red. masses --      2.1365                 1.1495                 2.0070
 Frc consts  --      0.9828                 0.5547                 1.0351
 IR Inten    --      1.5127                76.0948                27.7585

                     22                     23                     24
                      A                      A                      A
 Frequencies --    949.7023               953.6736               978.3322
 Red. masses --      1.4942                 1.5119                 1.5125
 Frc consts  --      0.7940                 0.8102                 0.8530
 IR Inten    --     60.0600                32.0919                 1.6967

                     25                     26                     27
                      A                      A                      A
 Frequencies --   1009.2003              1077.0714              1125.8622
 Red. masses --      1.8441                 2.0212                 1.5534
 Frc consts  --      1.1066                 1.3815                 1.1601
 IR Inten    --      1.4685                11.0618                 5.0550

                     28                     29                     30
                      A                      A                      A
 Frequencies --   1148.7143              1204.7368              1213.4398
 Red. masses --      2.3101                 1.8902                 2.3735
 Frc consts  --      1.7960                 1.6164                 2.0591
 IR Inten    --      6.8784                15.3720                11.1928

                     31                     32                     33
                      A                      A                      A
 Frequencies --   1242.2437              1294.2260              1314.2441
 Red. masses --      1.7212                 1.3093                 1.2621
 Frc consts  --      1.5650                 1.2921                 1.2844
 IR Inten    --      7.4261                 4.0082                 6.5268

                     34                     35                     36
                      A                      A                      A
 Frequencies --   1360.0178              1374.0786              1395.4732
 Red. masses --      1.3213                 1.3372                 1.3108
 Frc consts  --      1.4399                 1.4876                 1.5040
 IR Inten    --      6.4676                20.0667                 1.4245

                     37                     38                     39
                      A                      A                      A
 Frequencies --   1408.6791              1428.1817              1433.9554
 Red. masses --      1.4308                 1.2728                 1.5501
 Frc consts  --      1.6728                 1.5295                 1.8779
 IR Inten    --      6.6132                21.8022               424.2865

                     40                     41                     42
                      A                      A                      A
 Frequencies --   1448.6203              1506.3162              1516.2705
 Red. masses --      1.2247                 1.0745                 1.0447
 Frc consts  --      1.5142                 1.4365                 1.4152
 IR Inten    --      7.2196                 1.8409                 4.9210

                     43                     44                     45
                      A                      A                      A
 Frequencies --   1521.6331              1531.8380              1541.7312
 Red. masses --      1.0578                 1.0533                 1.0467
 Frc consts  --      1.4430                 1.4563                 1.4659
 IR Inten    --      6.2716                 6.9102                13.2988

                     46                     47                     48
                      A                      A                      A
 Frequencies --   1694.9687              1840.9261              3006.1456
 Red. masses --      1.0896                 9.4291                 1.0776
 Frc consts  --      1.8444                18.8276                 5.7377
 IR Inten    --     33.1315               333.8848                 1.0244

                     49                     50                     51
                      A                      A                      A
 Frequencies --   3017.3537              3024.7621              3033.5555
 Red. masses --      1.0724                 1.0418                 1.0386
 Frc consts  --      5.7525                 5.6159                 5.6311
 IR Inten    --     17.9841                32.3631                33.6938

                     52                     53                     54
                      A                      A                      A
 Frequencies --   3045.7233              3088.9007              3095.3491
 Red. masses --      1.0837                 1.0970                 1.0977
 Frc consts  --      5.9230                 6.1671                 6.1967
 IR Inten    --     28.8846                14.1059                36.1672

                     55                     56                     57
                      A                      A                      A
 Frequencies --   3101.8427              3105.6367              3107.9312
 Red. masses --      1.0959                 1.1017                 1.1011
 Frc consts  --      6.2122                 6.2607                 6.2662
 IR Inten    --     36.3561                29.6816                50.9274

                     58                     59                     60
                      A                      A                      A
 Frequencies --   3364.0172              3521.9122              3611.5306
 Red. masses --      1.0645                 1.0512                 1.0939
 Frc consts  --      7.0975                 7.6825                 8.4066
 IR Inten    --    282.3901                 1.4889                11.5541

 - Thermochemistry -
 -------------------
 Temperature   298.150 Kelvin.  Pressure   1.00000 Atm.
 Atom     1 has atomic number  6 and mass  12.00000

 Molecular mass:   131.09463 amu.
 Principal axes and moments of inertia in atomic units:
                           1         2         3
     Eigenvalues --   639.218852062.138622468.42851
           X            0.99982   0.01896  -0.00198
           Y           -0.01901   0.99936  -0.03045
           Z            0.00140   0.03048   0.99953
 This molecule is an asymmetric top.
 Rotational symmetry number  1.
 Warning -- assumption of classical behavior for rotation
           may cause significant error
 Rotational temperatures (Kelvin)      0.13550     0.04200     0.03509
 Rotational constants (GHZ):           2.82335     0.87518     0.73113
 Zero-point vibrational energy     511046.6 (Joules/Mol)
                                  122.14307 (Kcal/Mol)
 Warning -- explicit consideration of  14 degrees of freedom as
           vibrations may cause significant error
 Vibrational temperatures:     62.85   101.58   155.98   257.19   338.92
          (Kelvin)            344.32   397.40   465.96   475.17   518.19
                              592.99   631.72   655.42   792.94   945.21
                             1037.67  1173.83  1235.35  1271.29  1302.12
                             1346.10  1366.41  1372.12  1407.60  1452.01
                             1549.66  1619.86  1652.74  1733.35  1745.87
                             1787.31  1862.10  1890.90  1956.76  1976.99
                             2007.77  2026.77  2054.83  2063.14  2084.24
                             2167.25  2181.57  2189.29  2203.97  2218.20
                             2438.68  2648.68  4325.17  4341.29  4351.95
                             4364.60  4382.11  4444.23  4453.51  4462.85
                             4468.31  4471.61  4840.06  5067.24  5196.18

 Zero-point correction=                           0.194647 (Hartree/Particle)
 Thermal correction to Energy=                    0.204948
 Thermal correction to Enthalpy=                  0.205892
 Thermal correction to Gibbs Free Energy=         0.158735
 Sum of electronic and zero-point Energies=           -441.524432
 Sum of electronic and thermal Energies=              -441.514131
 Sum of electronic and thermal Enthalpies=            -441.513187
 Sum of electronic and thermal Free Energies=         -441.560344

                     E (Thermal)             CV                S
                      KCal/Mol        Cal/Mol-Kelvin    Cal/Mol-Kelvin
 Total                  128.607             37.909             99.249
 Electronic               0.000              0.000              0.000
 Translational            0.889              2.981             40.525
 Rotational               0.889              2.981             29.566
 Vibrational            126.829             31.948             29.158
 Vibration     1          0.595              1.980              5.085
 Vibration     2          0.598              1.968              4.136
 Vibration     3          0.606              1.942              3.297
 Vibration     4          0.629              1.868              2.341
 Vibration     5          0.655              1.786              1.836
 Vibration     6          0.657              1.780              1.808
 Vibration     7          0.678              1.717              1.557
 Vibration     8          0.708              1.628              1.291
 Vibration     9          0.713              1.615              1.259
 Vibration    10          0.735              1.554              1.121
 Vibration    11          0.776              1.444              0.919
 Vibration    12          0.799              1.385              0.830
 Vibration    13          0.814              1.349              0.779
 Vibration    14          0.906              1.137              0.542

 Optimization completed.
    -- Stationary point found.
 Normal termination of Gaussian 09 at Sat Sep 16 04:28:03 2023.
