 Gaussian 09, Revision D.01,
 Gaussian 09:  EM64W-G09RevD.01 13-Apr-2013

 --------------------------------------------------------------------
 # opt freq b3lyp/6-31+g(d) empiricaldispersion=gd3 scf=maxcycle=1000
 --------------------------------------------------------------------

 -------------------
 Title Card Required
 -------------------
 Symbolic Z-matrix:
 Charge =  0 Multiplicity = 1

 SCF Done:  E(RB3LYP) =  -345.355660745     A.U. after   11 cycles
 SCF Done:  E(RB3LYP) =  -345.355714362     A.U. after    8 cycles
 SCF Done:  E(RB3LYP) =  -345.355725954     A.U. after    8 cycles
 Optimization completed.
    -- Stationary point found.
 Normal termination of Gaussian 09 at Sat Sep 16 01:55:23 2023.

 ---------------------------------------------------------------------
 #N Geom=AllCheck Guess=TCheck SCRF=Check GenChk RB3LYP/6-31+G(d) Freq
 ---------------------------------------------------------------------

 Structure from the checkpoint file:  "C:\Users\vivek\Downloads\ligand\molecule_10.chk"
 -------------------
 Title Card Required
 -------------------
 Charge =  0 Multiplicity = 1

                         Standard orientation:
 ---------------------------------------------------------------------
 Center     Atomic      Atomic             Coordinates (Angstroms)
 Number     Number       Type             X           Y           Z
 ---------------------------------------------------------------------
      1          6           0        0.000694   -0.782895    1.385813
      2          6           0       -0.000694    0.782895    1.385813
      3          1           0       -0.882778   -1.187369    1.894899
      4          1           0        0.885265   -1.185779    1.894247
      5          1           0       -0.885265    1.185779    1.894247
      6          1           0        0.882778    1.187369    1.894899
      7          6           0       -1.199586   -0.783998   -0.692789
      8          1           0       -1.196916   -1.187401   -1.712809
      9          1           0       -2.082055   -1.187820   -0.181526
     10          6           0       -1.200160    0.782713   -0.693255
     11          1           0       -1.197048    1.185488   -1.713520
     12          1           0       -2.083290    1.186207   -0.182874
     13          6           0        1.199586    0.783998   -0.692789
     14          1           0        1.196916    1.187401   -1.712809
     15          1           0        2.082055    1.187820   -0.181526
     16          6           0        1.200160   -0.782713   -0.693255
     17          1           0        1.197048   -1.185488   -1.713520
     18          1           0        2.083290   -1.186207   -0.182874
     19          7           0       -0.000694    1.290543    0.000424
     20          7           0        0.000694   -1.290543    0.000424
 ---------------------------------------------------------------------

 SCF Done:  E(RB3LYP) =  -345.355725954     A.U. after    1 cycles

 The electronic state is 1-A.
 Alpha  occ. eigenvalues --  -14.33111 -14.33111 -10.20919 -10.20919 -10.20913
 Alpha  occ. eigenvalues --  -10.20903 -10.20902 -10.20896  -0.96259  -0.88268
 Alpha  occ. eigenvalues --   -0.75803  -0.75785  -0.64009  -0.63999  -0.63333
 Alpha  occ. eigenvalues --   -0.52120  -0.50364  -0.50357  -0.48575  -0.41619
 Alpha  occ. eigenvalues --   -0.41610  -0.41336  -0.39753  -0.39735  -0.38268
 Alpha  occ. eigenvalues --   -0.38249  -0.33209  -0.32558  -0.32542  -0.26344
 Alpha  occ. eigenvalues --   -0.19089
 Alpha virt. eigenvalues --    0.00586   0.01992   0.01993   0.02722   0.03778
 Alpha virt. eigenvalues --    0.04278   0.04279   0.04605   0.04605   0.06915
 Alpha virt. eigenvalues --    0.09070   0.09299   0.09301   0.10716   0.10716

 Mulliken charges:
               1
     1  C   -0.347009
     2  C   -0.347009
     3  H    0.198406
     4  H    0.198394
     5  H    0.198394
     6  H    0.198406
     7  C   -0.347076
     8  H    0.198347
     9  H    0.198378
    10  C   -0.347076
    11  H    0.198335
    12  H    0.198389
    13  C   -0.347076
    14  H    0.198347
    15  H    0.198378
    16  C   -0.347076
    17  H    0.198335
    18  H    0.198389
    19  N   -0.149087
    20  N   -0.149087
 Sum of Mulliken charges =   0.00000

 Dipole moment (field-independent basis, Debye):
    X=              0.0000    Y=              0.0000    Z=             -0.0012  Tot=              0.0012
 Quadrupole moment (field-independent basis, Debye-Ang):
   XX=            -47.5507   YY=            -59.5920   ZZ=            -47.5444
   XY=              0.0065   XZ=              0.0000   YZ=              0.0000

  Exact polarizability:  81.947   0.003  76.691   0.000   0.000  81.957
 Approx polarizability: 113.727   0.004 105.438   0.000   0.000 113.734

                      1                      2                      3
                      A                      A                      B
 Frequencies --     74.7748               350.0241               351.0613
 Red. masses --      1.6884                 1.7414                 1.7384
 Frc consts  --      0.0056                 0.1257                 0.1262
 IR Inten    --      0.0000                 0.0000                 0.0002

                      4                      5                      6
                      A                      B                      B
 Frequencies --    439.4780               439.6657               590.7268
 Red. masses --      2.3771                 2.3947                 3.5243
 Frc consts  --      0.2705                 0.2727                 0.7246
 IR Inten    --      0.0001                 0.0001                 0.0028

                      7                      8                      9
                      A                      A                      B
 Frequencies --    591.3476               602.4912               764.8108
 Red. masses --      3.5353                11.8184                 4.1698
 Frc consts  --      0.7284                 2.5276                 1.4370
 IR Inten    --      0.0000                 0.0000                71.7845

                     10                     11                     12
                      A                      B                      A
 Frequencies --    806.8027               821.4090               839.7500
 Red. masses --      5.2549                 1.1592                 1.2598
 Frc consts  --      2.0153                 0.4608                 0.5234
 IR Inten    --      0.0001                 0.0155                 5.0414

                     13                     14                     15
                      B                      B                      A
 Frequencies --    844.9262               893.8540               894.0115
 Red. masses --      1.2586                 3.6003                 3.6103
 Frc consts  --      0.5294                 1.6948                 1.7001
 IR Inten    --      5.4176                 4.5503                 4.6804

                     16                     17                     18
                      A                      B                      A
 Frequencies --    964.8567               993.8437              1036.7150
 Red. masses --      3.2693                 5.3470                 1.5294
 Frc consts  --      1.7932                 3.1117                 0.9685
 IR Inten    --      0.0073                18.3774                 0.0000

                     19                     20                     21
                      B                      A                      B
 Frequencies --   1038.2573              1038.6978              1077.1772
 Red. masses --      2.9848                 2.9826                 3.2021
 Frc consts  --      1.8957                 1.8959                 2.1891
 IR Inten    --      0.0088                 0.0000                43.4598

                     22                     23                     24
                      A                      B                      B
 Frequencies --   1077.7913              1206.1272              1209.4028
 Red. masses --      3.2035                 1.0412                 2.0426
 Frc consts  --      2.1925                 0.8924                 1.7602
 IR Inten    --     43.7314                 0.0007                 0.0001

                     25                     26                     27
                      A                      A                      B
 Frequencies --   1210.5887              1267.6233              1334.7641
 Red. masses --      2.0275                 1.0985                 1.2243
 Frc consts  --      1.7507                 1.0400                 1.2851
 IR Inten    --      0.0000                 0.0000                 0.0008

                     28                     29                     30
                      A                      B                      A
 Frequencies --   1335.4421              1341.8291              1342.3102
 Red. masses --      1.2203                 1.2156                 1.2185
 Frc consts  --      1.2822                 1.2895                 1.2936
 IR Inten    --      0.0000                 0.0028                 0.0075

                     31                     32                     33
                      A                      B                      A
 Frequencies --   1352.1057              1352.9995              1362.0195
 Red. masses --      1.3824                 1.3777                 1.4277
 Frc consts  --      1.4890                 1.4859                 1.5604
 IR Inten    --      0.0000                 0.0013                10.1557

                     34                     35                     36
                      B                      A                      B
 Frequencies --   1362.1368              1373.5793              1392.8678
 Red. masses --      1.4284                 1.2904                 1.3320
 Frc consts  --      1.5615                 1.4345                 1.5225
 IR Inten    --     10.0702                 0.0004                 8.5426

                     37                     38                     39
                      A                      B                      B
 Frequencies --   1501.9973              1502.7520              1514.7295
 Red. masses --      1.0810                 1.0804                 1.0810
 Frc consts  --      1.4369                 1.4375                 1.4614
 IR Inten    --      0.0000                 0.0310                 9.9527

                     40                     41                     42
                      A                      B                      A
 Frequencies --   1514.8721              1518.8625              1528.4108
 Red. masses --      1.0813                 1.0923                 1.0903
 Frc consts  --      1.4620                 1.4847                 1.5007
 IR Inten    --      9.8683                 6.8926                 0.1531

                     43                     44                     45
                      A                      B                      B
 Frequencies --   3033.5722              3034.0082              3036.2837
 Red. masses --      1.0582                 1.0581                 1.0600
 Frc consts  --      5.7375                 5.7387                 5.7574
 IR Inten    --      0.0000                 0.3342               117.5191

                     46                     47                     48
                      B                      A                      A
 Frequencies --   3042.4525              3042.5858              3050.7100
 Red. masses --      1.0585                 1.0585                 1.0615
 Frc consts  --      5.7727                 5.7733                 5.8208
 IR Inten    --    136.5977               137.1834                 0.0102

                     49                     50                     51
                      A                      A                      B
 Frequencies --   3068.5898              3071.8921              3072.0556
 Red. masses --      1.1087                 1.1073                 1.1075
 Frc consts  --      6.1511                 6.1564                 6.1580
 IR Inten    --      0.0000                 0.0001                 0.0027

                     52                     53                     54
                      B                      B                      A
 Frequencies --   3090.8276              3097.8867              3098.2653
 Red. masses --      1.1087                 1.1086                 1.1086
 Frc consts  --      6.2405                 6.2685                 6.2699
 IR Inten    --      0.0617               111.0723               110.5181

 - Thermochemistry -
 -------------------
 Temperature   298.150 Kelvin.  Pressure   1.00000 Atm.
 Atom     1 has atomic number  6 and mass  12.00000

 Molecular mass:   112.10005 amu.
 Principal axes and moments of inertia in atomic units:
                           1         2         3
     Eigenvalues --   682.42315 726.20389 726.42762
           X           -0.00056   0.00000   1.00000
           Y            1.00000   0.00000   0.00056
           Z            0.00000   1.00000   0.00000
 This molecule is an asymmetric top.
 Rotational symmetry number  2.
 Warning -- assumption of classical behavior for rotation
           may cause significant error
 Rotational temperatures (Kelvin)      0.12692     0.11927     0.11923
 Rotational constants (GHZ):           2.64461     2.48517     2.48441
 Zero-point vibrational energy     483273.5 (Joules/Mol)
                                  115.50514 (Kcal/Mol)
 Warning -- explicit consideration of   8 degrees of freedom as
           vibrations may cause significant error
 Vibrational temperatures:    107.58   503.61   505.10   632.31   632.58
          (Kelvin)            849.92   850.82   866.85  1100.39  1160.81
                             1181.82  1208.21  1215.66  1286.05  1286.28
                             1388.21  1429.92  1491.60  1493.82  1494.45
                             1549.82  1550.70  1735.35  1740.06  1741.76
                             1823.82  1920.43  1921.40  1930.59  1931.28
                             1945.38  1946.66  1959.64  1959.81  1976.27
                             2004.02  2161.04  2162.12  2179.36  2179.56
                             2185.30  2199.04  4364.63  4365.26  4368.53
                             4377.41  4377.60  4389.29  4415.01  4419.76
                             4420.00  4447.01  4457.16  4457.71

 Zero-point correction=                           0.184069 (Hartree/Particle)
 Thermal correction to Energy=                    0.190333
 Thermal correction to Enthalpy=                  0.191277
 Thermal correction to Gibbs Free Energy=         0.154346
 Sum of electronic and zero-point Energies=           -345.171657
 Sum of electronic and thermal Energies=              -345.165393
 Sum of electronic and thermal Enthalpies=            -345.164449
 Sum of electronic and thermal Free Energies=         -345.201379

                     E (Thermal)             CV                S
                      KCal/Mol        Cal/Mol-Kelvin    Cal/Mol-Kelvin
 Total                  119.436             25.963             77.726
 Electronic               0.000              0.000              0.000
 Translational            0.889              2.981             40.059
 Rotational               0.889              2.981             26.001
 Vibrational            117.658             20.001             11.667
 Vibration     1          0.599              1.966              4.024
 Vibration     2          0.727              1.575              1.166
 Vibration     3          0.728              1.573              1.161
 Vibration     4          0.800              1.384              0.828
 Vibration     5          0.800              1.384              0.828
 Vibration     6          0.948              1.052              0.466
 Vibration     7          0.949              1.050              0.465
 Vibration     8          0.961              1.027              0.445

 Optimization completed.
    -- Stationary point found.
 Normal termination of Gaussian 09 at Sat Sep 16 01:57:09 2023.
