 Gaussian 09, Revision D.01,
 Gaussian 09:  EM64W-G09RevD.01 13-Apr-2013

 --------------------------------------------------------------------
 # opt freq b3lyp/6-31+g(d) empiricaldispersion=gd3 scf=maxcycle=1000
 --------------------------------------------------------------------

 -------------------
 Title Card Required
 -------------------
 Symbolic Z-matrix:
 Charge =  0 Multiplicity = 1

 SCF Done:  E(RB3LYP) =  -190.531974352     A.U. after   12 cycles
 SCF Done:  E(RB3LYP) =  -190.532297160     A.U. after   10 cycles
 SCF Done:  E(RB3LYP) =  -190.532345480     A.U. after    9 cycles
 SCF Done:  E(RB3LYP) =  -190.532353767     A.U. after    9 cycles
 SCF Done:  E(RB3LYP) =  -190.532355629     A.U. after    8 cycles
 SCF Done:  E(RB3LYP) =  -190.532355969     A.U. after    7 cycles
 Optimization completed.
    -- Stationary point found.
 Normal termination of Gaussian 09 at Sat Sep 16 03:42:01 2023.

 ---------------------------------------------------------------------
 #N Geom=AllCheck Guess=TCheck SCRF=Check GenChk RB3LYP/6-31+G(d) Freq
 ---------------------------------------------------------------------

 Structure from the checkpoint file:  "D:\PG\project pg\new opti with disp\Cu ligand\Lc.chk"
 -------------------
 Title Card Required
 -------------------
 Charge =  0 Multiplicity = 1

                         Standard orientation:
 ---------------------------------------------------------------------
 Center     Atomic      Atomic             Coordinates (Angstroms)
 Number     Number       Type             X           Y           Z
 ---------------------------------------------------------------------
      1          6           0       -0.724667    0.586738    0.289146
      2          6           0        0.685827    0.603315   -0.300864
      3          1           0       -1.243117    1.510262    0.000987
      4          1           0       -0.641368    0.594683    1.394108
      5          1           0        1.183518    1.549519   -0.027191
      6          1           0        0.605761    0.569471   -1.393417
      7          7           0       -1.471921   -0.556792   -0.238601
      8          1           0       -0.940501   -1.409011   -0.065955
      9          7           0        1.423864   -0.594981    0.132919
     10          1           0        2.264884   -0.733901   -0.421865
     11          1           0       -2.375811   -0.651946    0.218474
     12          1           0        1.716075   -0.506993    1.104936
 ---------------------------------------------------------------------

 SCF Done:  E(RB3LYP) =  -190.532355969     A.U. after    1 cycles

 The electronic state is 1-A.
 Alpha  occ. eigenvalues --  -14.32753 -14.31090 -10.21180 -10.20808  -0.89750
 Alpha  occ. eigenvalues --   -0.86067  -0.70847  -0.59602  -0.50568  -0.49102
 Alpha  occ. eigenvalues --   -0.44738  -0.44322  -0.38884  -0.36678  -0.35195
 Alpha  occ. eigenvalues --   -0.25115  -0.23042
 Alpha virt. eigenvalues --    0.00073   0.02106   0.02965   0.03651   0.06573
 Alpha virt. eigenvalues --    0.07327   0.08086   0.10176   0.11301   0.12598
 Alpha virt. eigenvalues --    0.14642   0.15112   0.16231   0.16965   0.20130

 Mulliken charges:
               1
     1  C   -0.246717
     2  C   -0.310718
     3  H    0.185056
     4  H    0.160088
     5  H    0.172332
     6  H    0.204324
     7  N   -0.808559
     8  H    0.392096
     9  N   -0.845190
    10  H    0.370369
    11  H    0.363546
    12  H    0.363374
 Sum of Mulliken charges =   0.00000

 Dipole moment (field-independent basis, Debye):
    X=              1.2065    Y=              0.7907    Z=              1.4990  Tot=              2.0804
 Quadrupole moment (field-independent basis, Debye-Ang):
   XX=            -23.1559   YY=            -27.8437   ZZ=            -27.6953
   XY=              0.1131   XZ=             -2.6468   YZ=             -0.9757

  Exact polarizability:  46.003   0.469  42.892   0.300   0.633  40.567
 Approx polarizability:  54.483  -0.036  55.072   0.395   0.860  54.661

                      1                      2                      3
                      A                      A                      A
 Frequencies --    184.0112               251.5362               303.2221
 Red. masses --      2.4562                 1.0626                 1.2919
 Frc consts  --      0.0490                 0.0396                 0.0700
 IR Inten    --      3.5130                24.7905                50.3963

                      4                      5                      6
                      A                      A                      A
 Frequencies --    361.6368               511.5913               827.9129
 Red. masses --      1.7495                 2.1230                 1.3121
 Frc consts  --      0.1348                 0.3274                 0.5299
 IR Inten    --     33.6655                13.7078               111.3082

                      7                      8                      9
                      A                      A                      A
 Frequencies --    864.3161               883.8528               935.8376
 Red. masses --      1.8301                 1.5012                 1.5911
 Frc consts  --      0.8055                 0.6909                 0.8210
 IR Inten    --     70.9187               110.9403                52.0194

                     10                     11                     12
                      A                      A                      A
 Frequencies --   1018.7403              1058.7553              1123.5651
 Red. masses --      1.3900                 1.9601                 2.4693
 Frc consts  --      0.8500                 1.2946                 1.8367
 IR Inten    --     14.2392                10.9965                 6.0057

                     13                     14                     15
                      A                      A                      A
 Frequencies --   1191.1646              1228.9130              1335.6668
 Red. masses --      1.2722                 1.3909                 1.2396
 Frc consts  --      1.0635                 1.2376                 1.3030
 IR Inten    --      4.3534                 4.3374                 4.7851

                     16                     17                     18
                      A                      A                      A
 Frequencies --   1352.0738              1414.2259              1448.4095
 Red. masses --      1.1623                 1.3294                 1.5057
 Frc consts  --      1.2519                 1.5665                 1.8611
 IR Inten    --      4.6697                13.5920                 9.8570

                     19                     20                     21
                      A                      A                      A
 Frequencies --   1517.6900              1529.6425              1685.1137
 Red. masses --      1.0857                 1.0858                 1.0864
 Frc consts  --      1.4735                 1.4968                 1.8177
 IR Inten    --      4.2070                 4.5258                50.7201

                     22                     23                     24
                      A                      A                      A
 Frequencies --   1695.8335              2923.0741              2975.8185
 Red. masses --      1.0885                 1.0739                 1.0724
 Frc consts  --      1.8444                 5.4064                 5.5950
 IR Inten    --     40.3159               104.2958                95.8866

                     25                     26                     27
                      A                      A                      A
 Frequencies --   3061.3684              3088.6328              3483.2828
 Red. masses --      1.0863                 1.0911                 1.0494
 Frc consts  --      5.9986                 6.1328                 7.5022
 IR Inten    --     48.2261                31.6310                 4.4720

                     28                     29                     30
                      A                      A                      A
 Frequencies --   3484.0361              3572.5710              3574.2445
 Red. masses --      1.0504                 1.0935                 1.0929
 Frc consts  --      7.5120                 8.2227                 8.2262
 IR Inten    --      0.5550                 4.7177                 2.0121

 - Thermochemistry -
 -------------------
 Temperature   298.150 Kelvin.  Pressure   1.00000 Atm.
 Atom     1 has atomic number  6 and mass  12.00000

 Molecular mass:    60.06875 amu.
 Principal axes and moments of inertia in atomic units:
                           1         2         3
     Eigenvalues --   124.61907 348.67268 412.74787
           X            0.99987   0.00395  -0.01582
           Y           -0.00421   0.99986  -0.01644
           Z            0.01575   0.01650   0.99974
 This molecule is an asymmetric top.
 Rotational symmetry number  1.
 Rotational temperatures (Kelvin)      0.69503     0.24841     0.20985
 Rotational constants (GHZ):          14.48206     5.17603     4.37250
 Zero-point vibrational energy     292407.6 (Joules/Mol)
                                   69.88710 (Kcal/Mol)
 Warning -- explicit consideration of   5 degrees of freedom as
           vibrations may cause significant error
 Vibrational temperatures:    264.75   361.90   436.27   520.31   736.06
          (Kelvin)           1191.18  1243.56  1271.67  1346.46  1465.74
                             1523.31  1616.56  1713.82  1768.13  1921.72
                             1945.33  2034.75  2083.94  2183.61  2200.81
                             2424.50  2439.92  4205.65  4281.53  4404.62
                             4443.85  5011.66  5012.74  5140.13  5142.53

 Zero-point correction=                           0.111372 (Hartree/Particle)
 Thermal correction to Energy=                    0.116656
 Thermal correction to Enthalpy=                  0.117601
 Thermal correction to Gibbs Free Energy=         0.083975
 Sum of electronic and zero-point Energies=           -190.420984
 Sum of electronic and thermal Energies=              -190.415700
 Sum of electronic and thermal Enthalpies=            -190.414755
 Sum of electronic and thermal Free Energies=         -190.448381

                     E (Thermal)             CV                S
                      KCal/Mol        Cal/Mol-Kelvin    Cal/Mol-Kelvin
 Total                   73.203             18.152             70.770
 Electronic               0.000              0.000              0.000
 Translational            0.889              2.981             38.199
 Rotational               0.889              2.981             24.398
 Vibrational             71.426             12.190              8.173
 Vibration     1          0.631              1.862              2.287
 Vibration     2          0.664              1.760              1.720
 Vibration     3          0.695              1.668              1.399
 Vibration     4          0.736              1.551              1.115
 Vibration     5          0.867              1.224              0.630

 Optimization completed.
    -- Stationary point found.
 Normal termination of Gaussian 09 at Sat Sep 16 03:42:26 2023.
