 Gaussian 09, Revision D.01,
 Gaussian 09:  EM64W-G09RevD.01 13-Apr-2013

 ---------------------------------------------------------------------
 # opt freq rb3lyp/6-31+g(d) geom=connectivity empiricaldispersion=gd3
 ---------------------------------------------------------------------

 -------------------
 Title Card Required
 -------------------
 Symbolic Z-matrix:
 Charge =  0 Multiplicity = 1

 SCF Done:  E(RB3LYP) =  -346.802591796     A.U. after   13 cycles
 SCF Done:  E(RB3LYP) =  -346.807830683     A.U. after   13 cycles
 SCF Done:  E(RB3LYP) =  -346.808169950     A.U. after   11 cycles
 SCF Done:  E(RB3LYP) =  -346.808183712     A.U. after   10 cycles
 Optimization completed.
    -- Stationary point found.
 Normal termination of Gaussian 09 at Thu Sep 14 13:49:16 2023.

 ---------------------------------------------------------------------
 #N Geom=AllCheck Guess=TCheck SCRF=Check GenChk RB3LYP/6-31+G(d) Freq
 ---------------------------------------------------------------------

 Structure from the checkpoint file:  "C:\Users\vivek\Downloads\molecule_37.chk"
 -------------------
 Title Card Required
 -------------------
 Charge =  0 Multiplicity = 1

                         Standard orientation:
 ---------------------------------------------------------------------
 Center     Atomic      Atomic             Coordinates (Angstroms)
 Number     Number       Type             X           Y           Z
 ---------------------------------------------------------------------
      1          6           0        0.041925   -0.981765    0.000000
      2          6           0        1.210303   -0.209243    0.000000
      3          6           0       -1.213307   -0.370371    0.000000
      4          6           0        1.099469    1.188773    0.000000
      5          6           0       -0.158913    1.796779    0.000000
      6          6           0       -1.322482    1.025704    0.000000
      7          1           0        1.997403    1.801788    0.000000
      8          1           0       -0.237102    2.881279    0.000000
      9          1           0       -2.302264    1.500422    0.000000
     10          8           0       -2.309387   -1.198254    0.000000
     11          1           0       -3.122349   -0.669546   -0.000002
     12          1           0        0.091929   -2.067701    0.000000
     13          6           0        2.560714   -0.889758    0.000000
     14          1           0        2.681545   -1.530038    0.883179
     15          1           0        2.681544   -1.530041   -0.883177
     16          1           0        3.378129   -0.160843   -0.000002
 ---------------------------------------------------------------------

 SCF Done:  E(RB3LYP) =  -346.808183712     A.U. after    1 cycles

 The electronic state is 1-A.
 Alpha  occ. eigenvalues --  -19.19121 -10.25709 -10.20600 -10.19961 -10.19608
 Alpha  occ. eigenvalues --  -10.18787 -10.18768 -10.18765  -1.06720  -0.85727
 Alpha  occ. eigenvalues --   -0.77489  -0.74539  -0.69179  -0.61582  -0.60795
 Alpha  occ. eigenvalues --   -0.53191  -0.50192  -0.47694  -0.44200  -0.42623
 Alpha  occ. eigenvalues --   -0.41666  -0.40542  -0.40439  -0.37800  -0.36252
 Alpha  occ. eigenvalues --   -0.34306  -0.33287  -0.24983  -0.22849
 Alpha virt. eigenvalues --   -0.01643  -0.00467   0.00228   0.01285   0.02070
 Alpha virt. eigenvalues --    0.03839   0.04340   0.04950   0.06309   0.06534
 Alpha virt. eigenvalues --    0.07826   0.08222   0.09304   0.10081   0.12040

 Mulliken charges:
               1
     1  C    0.223871
     2  C    0.279405
     3  C    0.172662
     4  C   -0.750608
     5  C   -0.398655
     6  C    0.206037
     7  H    0.170273
     8  H    0.178369
     9  H    0.162166
    10  O   -0.680900
    11  H    0.473314
    12  H    0.185328
    13  C   -0.872250
    14  H    0.223407
    15  H    0.223407
    16  H    0.204173
 Sum of Mulliken charges =   0.00000

 Dipole moment (field-independent basis, Debye):
    X=             -0.3579    Y=              1.0214    Z=              0.0000  Tot=              1.0823
 Quadrupole moment (field-independent basis, Debye-Ang):
   XX=            -39.0997   YY=            -47.5082   ZZ=            -51.9710
   XY=             -3.7382   XZ=              0.0000   YZ=              0.0000

  Exact polarizability: 107.039  -1.770  94.186   0.000   0.000  51.826
 Approx polarizability: 159.135   1.745 150.628   0.000   0.000  74.394

                      1                      2                      3
                      A                      A                      A
 Frequencies --     35.5203               204.0900               233.8126
 Red. masses --      1.0465                 3.0046                 4.0901
 Frc consts  --      0.0008                 0.0737                 0.1317
 IR Inten    --      0.4317                 7.5560                 0.0338

                      4                      5                      6
                      A                      A                      A
 Frequencies --    300.1985               333.5858               450.6282
 Red. masses --      3.1829                 1.1117                 3.2489
 Frc consts  --      0.1690                 0.0729                 0.3887
 IR Inten    --      4.2352               113.7632                 6.2925

                      7                      8                      9
                      A                      A                      A
 Frequencies --    451.9757               524.3212               545.3467
 Red. masses --      2.8681                 5.5225                 6.2984
 Frc consts  --      0.3452                 0.8945                 1.1036
 IR Inten    --      3.1739                 0.2844                 2.2555

                     10                     11                     12
                      A                      A                      A
 Frequencies --    574.6195               683.3152               742.5282
 Red. masses --      3.5172                 2.4858                 6.1287
 Frc consts  --      0.6842                 0.6838                 1.9909
 IR Inten    --      1.1898                14.9521                 3.2534

                     13                     14                     15
                      A                      A                      A
 Frequencies --    773.5312               864.1008               888.7123
 Red. masses --      1.4104                 1.3122                 1.4201
 Frc consts  --      0.4972                 0.5773                 0.6608
 IR Inten    --     56.9220                 1.2880                11.7317

                     16                     17                     18
                      A                      A                      A
 Frequencies --    947.1271               967.1812              1010.2542
 Red. masses --      2.8466                 1.2860                 5.6356
 Frc consts  --      1.5045                 0.7088                 3.3889
 IR Inten    --     37.0547                 0.0315                 4.0204

                     19                     20                     21
                      A                      A                      A
 Frequencies --   1039.2933              1071.5443              1124.5433
 Red. masses --      1.5575                 1.5046                 1.6253
 Frc consts  --      0.9912                 1.0179                 1.2110
 IR Inten    --      5.1237                 3.4170                 6.0784

                     22                     23                     24
                      A                      A                      A
 Frequencies --   1182.8371              1198.9961              1213.2062
 Red. masses --      1.6556                 1.2459                 1.2321
 Frc consts  --      1.3647                 1.0553                 1.0685
 IR Inten    --     60.0333                19.9147                59.9901

                     25                     26                     27
                      A                      A                      A
 Frequencies --   1307.0170              1347.9075              1364.2459
 Red. masses --      4.0812                 1.3688                 4.9462
 Frc consts  --      4.1077                 1.4653                 5.4238
 IR Inten    --     89.6393                39.2188                 9.9964

                     28                     29                     30
                      A                      A                      A
 Frequencies --   1439.2967              1496.1482              1509.9114
 Red. masses --      1.2374                 1.6639                 1.0435
 Frc consts  --      1.5102                 2.1945                 1.4017
 IR Inten    --      0.7551                 0.2016                 7.4274

                     31                     32                     33
                      A                      A                      A
 Frequencies --   1528.3468              1533.8860              1638.6072
 Red. masses --      1.4433                 2.4262                 5.5498
 Frc consts  --      1.9863                 3.3633                 8.7796
 IR Inten    --     14.4317                60.9309                72.0666

                     34                     35                     36
                      A                      A                      A
 Frequencies --   1667.8396              3036.9961              3088.4238
 Red. masses --      5.8051                 1.0371                 1.1008
 Frc consts  --      9.5142                 5.6356                 6.1866
 IR Inten    --     58.2613                33.6219                16.9004

                     37                     38                     39
                      A                      A                      A
 Frequencies --   3115.4044              3164.5881              3180.3219
 Red. masses --      1.1011                 1.0880                 1.0892
 Frc consts  --      6.2966                 6.4196                 6.4907
 IR Inten    --     20.1776                12.0720                18.7239

                     40                     41                     42
                      A                      A                      A
 Frequencies --   3192.5825              3198.4948              3752.1069
 Red. masses --      1.0908                 1.0958                 1.0663
 Frc consts  --      6.5506                 6.6049                 8.8447
 IR Inten    --     13.2105                15.7990                48.2950

 - Thermochemistry -
 -------------------
 Temperature   298.150 Kelvin.  Pressure   1.00000 Atm.
 Atom     1 has atomic number  6 and mass  12.00000

 Molecular mass:   108.05751 amu.
 Principal axes and moments of inertia in atomic units:
                           1         2         3
     Eigenvalues --   496.869661007.061301492.70200
           X            0.99869  -0.05120   0.00000
           Y            0.05120   0.99869   0.00000
           Z            0.00000   0.00000   1.00000
 This molecule is an asymmetric top.
 Rotational symmetry number  1.
 Warning -- assumption of classical behavior for rotation
           may cause significant error
 Rotational temperatures (Kelvin)      0.17432     0.08601     0.05802
 Rotational constants (GHZ):           3.63222     1.79209     1.20904
 Zero-point vibrational energy     346458.8 (Joules/Mol)
                                   82.80565 (Kcal/Mol)
 Warning -- explicit consideration of  10 degrees of freedom as
           vibrations may cause significant error
 Vibrational temperatures:     51.11   293.64   336.40   431.92   479.95
          (Kelvin)            648.35   650.29   754.38   784.63   826.75
                              983.14  1068.33  1112.94  1243.25  1278.66
                             1362.70  1391.56  1453.53  1495.31  1541.71
                             1617.96  1701.84  1725.09  1745.53  1880.50
                             1939.34  1962.84  2070.82  2152.62  2172.42
                             2198.95  2206.92  2357.59  2399.65  4369.55
                             4443.55  4482.37  4553.13  4575.77  4593.41
                             4601.91  5398.44

 Zero-point correction=                           0.131959 (Hartree/Particle)
 Thermal correction to Energy=                    0.139355
 Thermal correction to Enthalpy=                  0.140299
 Thermal correction to Gibbs Free Energy=         0.099774
 Sum of electronic and zero-point Energies=           -346.676225
 Sum of electronic and thermal Energies=              -346.668829
 Sum of electronic and thermal Enthalpies=            -346.667885
 Sum of electronic and thermal Free Energies=         -346.708410

                     E (Thermal)             CV                S
                      KCal/Mol        Cal/Mol-Kelvin    Cal/Mol-Kelvin
 Total                   87.446             27.963             85.292
 Electronic               0.000              0.000              0.000
 Translational            0.889              2.981             39.949
 Rotational               0.889              2.981             28.104
 Vibrational             85.669             22.001             17.239
 Vibration     1          0.594              1.982              5.494
 Vibration     2          0.640              1.834              2.096
 Vibration     3          0.654              1.789              1.849
 Vibration     4          0.693              1.673              1.416
 Vibration     5          0.715              1.608              1.243
 Vibration     6          0.809              1.360              0.794
 Vibration     7          0.811              1.357              0.790
 Vibration     8          0.879              1.196              0.600
 Vibration     9          0.901              1.150              0.554
 Vibration    10          0.931              1.086              0.495

 Optimization completed.
    -- Stationary point found.
 Normal termination of Gaussian 09 at Thu Sep 14 13:51:45 2023.
