 Gaussian 16, Revision B.01,
 Gaussian 16:  EM64L-G16RevB.01 20-Dec-2017

 ----------------------------------------------------------------------
 # opt freq b3lyp/6-31+g(d) empiricaldispersion=gd3 scf=maxcycle=1000 v
 olume
 ----------------------------------------------------------------------

 -------------------
 Title Card Required
 -------------------
 Symbolic Z-matrix:
 Charge =  0 Multiplicity = 1

 SCF Done:  E(RB3LYP) =  -273.001187471     A.U. after   12 cycles
 SCF Done:  E(RB3LYP) =  -273.001187627     A.U. after    8 cycles
 SCF Done:  E(RB3LYP) =  -273.001188199     A.U. after    8 cycles
 Optimization completed.
    -- Stationary point found.
 Normal termination of Gaussian 16 at Fri Sep 15 07:30:47 2023.

 ---------------------------------------------------------------------
 #N Geom=AllCheck Guess=TCheck SCRF=Check GenChk RB3LYP/6-31+G(d) Freq
 ---------------------------------------------------------------------

 Structure from the checkpoint file:  "MOLECULE_4-vol.chk"
 -------------------
 Title Card Required
 -------------------
 Charge =  0 Multiplicity = 1

                         Standard orientation:
 ---------------------------------------------------------------------
 Center     Atomic      Atomic             Coordinates (Angstroms)
 Number     Number       Type             X           Y           Z
 ---------------------------------------------------------------------
      1          6           0       -0.329743   -0.507709   -0.174095
      2          6           0        1.033783   -0.010648    0.341777
      3          1           0       -0.310896   -0.568610   -1.271699
      4          1           0       -0.509675   -1.526930    0.193408
      5          6           0        2.136430   -1.015116   -0.027394
      6          1           0        0.980658    0.042518    1.441049
      7          1           0        3.109678   -0.699586    0.368678
      8          1           0        1.917374   -2.014024    0.369683
      9          1           0        2.231973   -1.102503   -1.118239
     10          6           0        1.387162    1.390478   -0.184622
     11          1           0        0.674216    2.152445    0.150899
     12          1           0        2.382804    1.697788    0.158653
     13          1           0        1.395444    1.399250   -1.283364
     14          6           0       -1.518475    0.347255    0.247790
     15          1           0       -1.465260    1.345337   -0.211298
     16          1           0       -1.517190    0.476719    1.342902
     17          8           0       -2.708079   -0.330058   -0.176058
     18          1           0       -3.479439    0.212497    0.047056
 ---------------------------------------------------------------------

 SCF Done:  E(RB3LYP) =  -273.001188199     A.U. after    1 cycles

 The electronic state is 1-A.
 Alpha  occ. eigenvalues --  -19.15675 -10.23497 -10.19552 -10.18093 -10.17897
 Alpha  occ. eigenvalues --  -10.17702  -1.02181  -0.81224  -0.72982  -0.68610
 Alpha  occ. eigenvalues --   -0.62334  -0.56397  -0.51495  -0.47786  -0.44871
 Alpha  occ. eigenvalues --   -0.43112  -0.42339  -0.38922  -0.38043  -0.36463
 Alpha  occ. eigenvalues --   -0.35041  -0.33028  -0.32617  -0.31978  -0.27748
 Alpha virt. eigenvalues --   -0.00185   0.01126   0.02591   0.02872   0.04415
 Alpha virt. eigenvalues --    0.05265   0.06157   0.06463   0.07311   0.08518
 Alpha virt. eigenvalues --    0.08923   0.10292   0.11176   0.11388   0.12085

 Mulliken charges:
               1
     1  C   -0.445205
     2  C   -0.014941
     3  H    0.207831
     4  H    0.205802
     5  C   -0.714395
     6  H    0.180464
     7  H    0.198736
     8  H    0.200525
     9  H    0.206926
    10  C   -0.640488
    11  H    0.194704
    12  H    0.198714
    13  H    0.208783
    14  C   -0.127307
    15  H    0.174968
    16  H    0.174972
    17  O   -0.676745
    18  H    0.466656
 Sum of Mulliken charges =   0.00000

 Dipole moment (field-independent basis, Debye):
    X=              0.1622    Y=              1.5156    Z=              0.8601  Tot=              1.7501
 Quadrupole moment (field-independent basis, Debye-Ang):
   XX=            -38.8426   YY=            -41.6211   ZZ=            -40.9474
   XY=             -4.9035   XZ=             -2.1498   YZ=             -0.2525

  Exact polarizability:  73.034  -0.279  63.813  -0.021   0.612  57.663
 Approx polarizability:  85.304   0.686  83.294   0.459   1.071  82.874

                      1                      2                      3
                      A                      A                      A
 Frequencies --     83.1322               115.7298               196.1657
 Red. masses --      2.1238                 2.4588                 2.8276
 Frc consts  --      0.0086                 0.0194                 0.0641
 IR Inten    --     10.6441                 0.0884                 2.8145

                      4                      5                      6
                      A                      A                      A
 Frequencies --    240.1023               264.4426               281.8406
 Red. masses --      1.0672                 1.1342                 1.0905
 Frc consts  --      0.0362                 0.0467                 0.0510
 IR Inten    --      1.1568                 2.1747               131.2960

                      7                      8                      9
                      A                      A                      A
 Frequencies --    340.2258               397.3144               452.4445
 Red. masses --      2.7603                 2.4465                 2.4424
 Frc consts  --      0.1883                 0.2275                 0.2946
 IR Inten    --      3.0160                 3.5274                 0.1931

                     10                     11                     12
                      A                      A                      A
 Frequencies --    481.7241               807.7519               841.4591
 Red. masses --      2.4476                 1.3169                 2.1095
 Frc consts  --      0.3346                 0.5063                 0.8800
 IR Inten    --      8.7020                 0.4625                 5.7828

                     13                     14                     15
                      A                      A                      A
 Frequencies --    945.6231               955.6815               977.1196
 Red. masses --      1.2796                 1.7412                 1.4281
 Frc consts  --      0.6741                 0.9370                 0.8034
 IR Inten    --      2.3644                 7.2076                 0.1498

                     16                     17                     18
                      A                      A                      A
 Frequencies --   1006.6712              1031.1639              1057.1512
 Red. masses --      1.4409                 3.0258                 3.2659
 Frc consts  --      0.8603                 1.8956                 2.1504
 IR Inten    --      0.1104                12.2737                99.1342

                     19                     20                     21
                      A                      A                      A
 Frequencies --   1142.7208              1193.6814              1204.1465
 Red. masses --      1.9663                 1.7401                 1.7324
 Frc consts  --      1.5128                 1.4608                 1.4800
 IR Inten    --      0.5432                 2.1547                 0.7065

                     22                     23                     24
                      A                      A                      A
 Frequencies --   1252.5177              1261.5201              1333.5536
 Red. masses --      1.2306                 1.3246                 1.2182
 Frc consts  --      1.1374                 1.2420                 1.2764
 IR Inten    --     35.2126                10.6026                 6.2127

                     25                     26                     27
                      A                      A                      A
 Frequencies --   1334.6012              1379.2547              1395.1076
 Red. masses --      1.1549                 1.3488                 1.4482
 Frc consts  --      1.2120                 1.5117                 1.6607
 IR Inten    --      6.0275                 1.3502                 6.0804

                     28                     29                     30
                      A                      A                      A
 Frequencies --   1427.2378              1445.9519              1464.6763
 Red. masses --      1.2563                 1.2192                 1.4264
 Frc consts  --      1.5078                 1.5018                 1.8029
 IR Inten    --      7.5927                 6.1809                 8.3514

                     31                     32                     33
                      A                      A                      A
 Frequencies --   1508.2435              1515.8030              1522.4668
 Red. masses --      1.0674                 1.0543                 1.0654
 Frc consts  --      1.4307                 1.4272                 1.4549
 IR Inten    --      0.1126                 1.1181                 3.9700

                     34                     35                     36
                      A                      A                      A
 Frequencies --   1528.3153              1538.0984              1544.1593
 Red. masses --      1.0566                 1.0450                 1.0870
 Frc consts  --      1.4540                 1.4566                 1.5271
 IR Inten    --      4.9826                17.2684                 2.0893

                     37                     38                     39
                      A                      A                      A
 Frequencies --   2984.1745              2997.3052              3024.1984
 Red. masses --      1.0629                 1.0817                 1.0805
 Frc consts  --      5.5769                 5.7256                 5.8226
 IR Inten    --     45.2794                33.0912                 7.2472

                     40                     41                     42
                      A                      A                      A
 Frequencies --   3027.6359              3029.4853              3035.5759
 Red. masses --      1.0473                 1.0522                 1.0498
 Frc consts  --      5.6563                 5.6899                 5.6994
 IR Inten    --     28.0032                59.7868                38.7463

                     43                     44                     45
                      A                      A                      A
 Frequencies --   3075.0001              3088.8879              3095.7248
 Red. masses --      1.1044                 1.1011                 1.1004
 Frc consts  --      6.1529                 6.1897                 6.2133
 IR Inten    --     39.0785                 5.2761                91.5136

                     46                     47                     48
                      A                      A                      A
 Frequencies --   3099.8060              3103.7986              3756.4623
 Red. masses --      1.1020                 1.1007                 1.0667
 Frc consts  --      6.2391                 6.2475                 8.8688
 IR Inten    --     47.2931                46.7377                19.4208

 - Thermochemistry -
 -------------------
 Temperature   298.150 Kelvin.  Pressure   1.00000 Atm.
 Atom     1 has atomic number  6 and mass  12.00000

 Molecular mass:    88.08882 amu.
 Principal axes and moments of inertia in atomic units:
                           1         2         3
     Eigenvalues --   264.880871048.467631225.73285
           X            0.99985  -0.01537  -0.00780
           Y            0.01536   0.99988  -0.00173
           Z            0.00782   0.00161   0.99997
 This molecule is an asymmetric top.
 Rotational symmetry number  1.
 Rotational temperatures (Kelvin)      0.32699     0.08261     0.07066
 Rotational constants (GHZ):           6.81341     1.72131     1.47238
 Zero-point vibrational energy     435356.1 (Joules/Mol)
                                  104.05260 (Kcal/Mol)
 Warning -- explicit consideration of  10 degrees of freedom as
           vibrations may cause significant error
 Vibrational temperatures:    119.61   166.51   282.24   345.45   380.47
          (Kelvin)            405.51   489.51   571.65   650.97   693.09
                             1162.17  1210.67  1360.54  1375.01  1405.86
                             1448.38  1483.61  1521.00  1644.12  1717.44
                             1732.50  1802.09  1815.05  1918.69  1920.19
                             1984.44  2007.25  2053.48  2080.40  2107.34
                             2170.03  2180.90  2190.49  2198.90  2212.98
                             2221.70  4293.56  4312.45  4351.15  4356.09
                             4358.75  4367.52  4424.24  4444.22  4454.06
                             4459.93  4465.67  5404.71

 Zero-point correction=                           0.165818 (Hartree/Particle)
 Thermal correction to Energy=                    0.173817
 Thermal correction to Enthalpy=                  0.174761
 Thermal correction to Gibbs Free Energy=         0.133994
 Sum of electronic and zero-point Energies=           -272.835370
 Sum of electronic and thermal Energies=              -272.827371
 Sum of electronic and thermal Enthalpies=            -272.826427
 Sum of electronic and thermal Free Energies=         -272.867194

                     E (Thermal)             CV                S
                      KCal/Mol        Cal/Mol-Kelvin    Cal/Mol-Kelvin
 Total                  109.072             28.340             85.802
 Electronic               0.000              0.000              0.000
 Translational            0.889              2.981             39.340
 Rotational               0.889              2.981             27.323
 Vibrational            107.294             22.379             19.139
 Vibration     1          0.600              1.961              3.816
 Vibration     2          0.608              1.936              3.170
 Vibration     3          0.636              1.845              2.169
 Vibration     4          0.657              1.779              1.802
 Vibration     5          0.671              1.738              1.632
 Vibration     6          0.681              1.707              1.522
 Vibration     7          0.720              1.595              1.211
 Vibration     8          0.764              1.476              0.973
 Vibration     9          0.811              1.355              0.788
 Vibration    10          0.838              1.291              0.705

                           ! Non-Optimized Parameters !
 Normal termination of Gaussian 16 at Fri Sep 15 07:31:25 2023.
