 Gaussian 16, Revision B.01,
 Gaussian 16:  EM64L-G16RevB.01 20-Dec-2017

 ----------------------------------------------------------------------
 # opt freq b3lyp/6-31+g(d) empiricaldispersion=gd3 scf=maxcycle=1000 v
 olume
 ----------------------------------------------------------------------

 -------------------
 Title Card Required
 -------------------
 Symbolic Z-matrix:
 Charge =  0 Multiplicity = 1

 SCF Done:  E(RB3LYP) =  -115.726317005     A.U. after   10 cycles
 Optimization completed.
    -- Stationary point found.
 Normal termination of Gaussian 16 at Sat Sep 16 07:41:10 2023.

 ---------------------------------------------------------------------
 #N Geom=AllCheck Guess=TCheck SCRF=Check GenChk RB3LYP/6-31+G(d) Freq
 ---------------------------------------------------------------------

 Structure from the checkpoint file:  "MOLECULE_11-vol.chk"
 -------------------
 Title Card Required
 -------------------
 Charge =  0 Multiplicity = 1

                         Standard orientation:
 ---------------------------------------------------------------------
 Center     Atomic      Atomic             Coordinates (Angstroms)
 Number     Number       Type             X           Y           Z
 ---------------------------------------------------------------------
      1          6           0        0.669453   -0.020789    0.000003
      2          1           0        1.081379    0.991658   -0.001060
      3          1           0        1.031150   -0.545551    0.896790
      4          1           0        1.031009   -0.547348   -0.895783
      5          8           0       -0.750425    0.122846    0.000002
      6          1           0       -1.156856   -0.756798    0.000015
 ---------------------------------------------------------------------

 SCF Done:  E(RB3LYP) =  -115.726317005     A.U. after    1 cycles

 The electronic state is 1-A.
 Alpha  occ. eigenvalues --  -19.16057 -10.23467  -1.02427  -0.68962  -0.51425
 Alpha  occ. eigenvalues --   -0.44496  -0.43108  -0.34347  -0.28191
 Alpha virt. eigenvalues --    0.00032   0.02356   0.05256   0.05495   0.14557
 Alpha virt. eigenvalues --    0.17323   0.18722   0.19392   0.20247   0.21106
 Alpha virt. eigenvalues --    0.24997   0.27837   0.32549   0.63984   0.64390

 Mulliken charges:
               1
     1  C   -0.355206
     2  H    0.199785
     3  H    0.175924
     4  H    0.175901
     5  O   -0.646333
     6  H    0.449929
 Sum of Mulliken charges =   0.00000

 Dipole moment (field-independent basis, Debye):
    X=              0.9692    Y=             -1.6807    Z=             -0.0001  Tot=              1.9401
 Quadrupole moment (field-independent basis, Debye-Ang):
   XX=            -13.1491   YY=            -12.3803   ZZ=            -14.1051
   XY=              2.5075   XZ=             -0.0003   YZ=             -0.0001

  Exact polarizability:  19.642   0.272  17.374   0.001   0.000  16.946
 Approx polarizability:  22.903   0.509  21.758   0.001   0.000  20.265

                      1                      2                      3
                      A                      A                      A
 Frequencies --    333.4544              1046.8391              1079.8869
 Red. masses --      1.0730                 3.9123                 1.2477
 Frc consts  --      0.0703                 2.5261                 0.8573
 IR Inten    --    145.4484               129.3374                 3.4738

                      4                      5                      6
                      A                      A                      A
 Frequencies --   1177.7247              1369.3570              1495.5237
 Red. masses --      1.2610                 1.2952                 1.1338
 Frc consts  --      1.0305                 1.4309                 1.4941
 IR Inten    --      0.2199                23.1608                 8.0174

                      7                      8                      9
                      A                      A                      A
 Frequencies --   1517.0025              1525.5470              3003.8449
 Red. masses --      1.0492                 1.0447                 1.0357
 Frc consts  --      1.4226                 1.4325                 5.5062
 IR Inten    --      2.6936                 5.1698                70.8163

                     10                     11                     12
                      A                      A                      A
 Frequencies --   3052.6579              3135.8653              3759.6071
 Red. masses --      1.1064                 1.0978                 1.0668
 Frc consts  --      6.0747                 6.3602                 8.8839
 IR Inten    --     66.4975                27.5598                23.6814

 - Thermochemistry -
 -------------------
 Temperature   298.150 Kelvin.  Pressure   1.00000 Atm.
 Atom     1 has atomic number  6 and mass  12.00000

 Molecular mass:    32.02621 amu.
 Principal axes and moments of inertia in atomic units:
                           1         2         3
     Eigenvalues --    14.20706  73.52449  76.16678
           X            0.99895   0.04591   0.00000
           Y           -0.04591   0.99895   0.00000
           Z            0.00000   0.00000   1.00000
 This molecule is an asymmetric top.
 Rotational symmetry number  1.
 Rotational temperatures (Kelvin)      6.09654     1.17803     1.13716
 Rotational constants (GHZ):         127.03127    24.54612    23.69460
 Zero-point vibrational energy     134563.8 (Joules/Mol)
                                   32.16152 (Kcal/Mol)
 Warning -- explicit consideration of   1 degrees of freedom as
           vibrations may cause significant error
 Vibrational temperatures:    479.77  1506.17  1553.72  1694.48  1970.20
          (Kelvin)           2151.72  2182.63  2194.92  4321.86  4392.09
                             4511.81  5409.24

 Zero-point correction=                           0.051253 (Hartree/Particle)
 Thermal correction to Energy=                    0.054564
 Thermal correction to Enthalpy=                  0.055508
 Thermal correction to Gibbs Free Energy=         0.028508
 Sum of electronic and zero-point Energies=           -115.675064
 Sum of electronic and thermal Energies=              -115.671753
 Sum of electronic and thermal Enthalpies=            -115.670809
 Sum of electronic and thermal Free Energies=         -115.697809

                     E (Thermal)             CV                S
                      KCal/Mol        Cal/Mol-Kelvin    Cal/Mol-Kelvin
 Total                   34.239              8.750             56.827
 Electronic               0.000              0.000              0.000
 Translational            0.889              2.981             36.324
 Rotational               0.889              2.981             19.015
 Vibrational             32.462              2.788              1.488
 Vibration     1          0.715              1.609              1.243

 Optimization completed.
    -- Stationary point found.
 Normal termination of Gaussian 16 at Sat Sep 16 07:41:14 2023.
