 Gaussian 16, Revision B.01,
 Gaussian 16:  EM64L-G16RevB.01 20-Dec-2017

 ----------------------------------------------------------------------
 # opt freq b3lyp/6-31+g(d) empiricaldispersion=gd3 scf=maxcycle=1000 v
 olume
 ----------------------------------------------------------------------

 -------------------
 Title Card Required
 -------------------
 Symbolic Z-matrix:
 Charge =  0 Multiplicity = 1

 SCF Done:  E(RB3LYP) =  -999.029483104     A.U. after   10 cycles
 Optimization completed.
    -- Stationary point found.
 Normal termination of Gaussian 16 at Fri Sep 15 07:32:45 2023.

 ---------------------------------------------------------------------
 #N Geom=AllCheck Guess=TCheck SCRF=Check GenChk RB3LYP/6-31+G(d) Freq
 ---------------------------------------------------------------------

 Structure from the checkpoint file:  "MOLECULE_8-vol.chk"
 -------------------
 Title Card Required
 -------------------
 Charge =  0 Multiplicity = 1

                         Standard orientation:
 ---------------------------------------------------------------------
 Center     Atomic      Atomic             Coordinates (Angstroms)
 Number     Number       Type             X           Y           Z
 ---------------------------------------------------------------------
      1          6           0       -0.488288   -0.582094   -0.000007
      2          6           0        0.488290    0.582100    0.000007
      3          1           0       -0.373500   -1.199524   -0.892225
      4          1           0       -0.373534   -1.199516    0.892221
      5          1           0        0.373540    1.199525   -0.892220
      6          1           0        0.373505    1.199532    0.892225
      7         17           0       -2.184447    0.070052   -0.000043
      8         17           0        2.184446   -0.070055    0.000043
 ---------------------------------------------------------------------

 SCF Done:  E(RB3LYP) =  -999.029483104     A.U. after    1 cycles

 The electronic state is 1-A.
 Alpha  occ. eigenvalues -- -101.55622-101.55622 -10.27309 -10.27285  -9.47186
 Alpha  occ. eigenvalues --   -9.47185  -7.23590  -7.23590  -7.22610  -7.22610
 Alpha  occ. eigenvalues --   -7.22584  -7.22584  -0.89357  -0.85266  -0.73624
 Alpha  occ. eigenvalues --   -0.64180  -0.51619  -0.46596  -0.45511  -0.42515
 Alpha  occ. eigenvalues --   -0.40245  -0.32698  -0.31804  -0.31422  -0.31291
 Alpha virt. eigenvalues --   -0.02363  -0.00148   0.02338   0.02381   0.03580
 Alpha virt. eigenvalues --    0.04535   0.06381   0.07144   0.08625   0.09025
 Alpha virt. eigenvalues --    0.09657   0.09717   0.11741   0.12063   0.12719

 Mulliken charges:
               1
     1  C   -0.527648
     2  C   -0.527643
     3  H    0.261698
     4  H    0.261698
     5  H    0.261698
     6  H    0.261698
     7  Cl   0.004250
     8  Cl   0.004249
 Sum of Mulliken charges =   0.00000

 Dipole moment (field-independent basis, Debye):
    X=              0.0000    Y=              0.0000    Z=              0.0000  Tot=              0.0000
 Quadrupole moment (field-independent basis, Debye-Ang):
   XX=            -46.8728   YY=            -37.3060   ZZ=            -38.1104
   XY=              0.5389   XZ=             -0.0002   YZ=              0.0000

  Exact polarizability:  68.967  -4.443  39.895   0.001   0.000  36.556
 Approx polarizability:  89.942 -10.550  53.865   0.001   0.000  49.506

                      1                      2                      3
                      A                      A                      A
 Frequencies --    123.8156               218.9591               298.3341
 Red. masses --      4.0703                 5.3157                17.3990
 Frc consts  --      0.0368                 0.1502                 0.9124
 IR Inten    --      7.4054                10.7564                 0.0000

                      4                      5                      6
                      A                      A                      A
 Frequencies --    701.2507               747.0378               794.8214
 Red. masses --      8.8653                 5.2788                 1.1072
 Frc consts  --      2.5686                 1.7357                 0.4121
 IR Inten    --    113.4201                 0.0000                 2.5184

                      7                      8                      9
                      A                      A                      A
 Frequencies --   1024.8298              1063.3250              1161.4039
 Red. masses --      1.3684                 4.2656                 1.0421
 Frc consts  --      0.8467                 2.8416                 0.8281
 IR Inten    --      0.0000                 0.0000                 2.2056

                     10                     11                     12
                      A                      A                      A
 Frequencies --   1284.0548              1310.6840              1364.3546
 Red. masses --      1.1445                 1.1548                 1.2307
 Frc consts  --      1.1118                 1.1688                 1.3497
 IR Inten    --     46.8550                 0.0000                 0.0000

                     13                     14                     15
                      A                      A                      A
 Frequencies --   1511.0265              1513.7684              3112.5799
 Red. masses --      1.0921                 1.0953                 1.0575
 Frc consts  --      1.4691                 1.4788                 6.0364
 IR Inten    --      7.1986                 0.0000                 0.0000

                     16                     17                     18
                      A                      A                      A
 Frequencies --   3119.6606              3168.2457              3191.1053
 Red. masses --      1.0560                 1.1120                 1.1130
 Frc consts  --      6.0553                 6.5762                 6.6775
 IR Inten    --     15.4581                 0.0000                 3.4787

 - Thermochemistry -
 -------------------
 Temperature   298.150 Kelvin.  Pressure   1.00000 Atm.
 Atom     1 has atomic number  6 and mass  12.00000

 Molecular mass:    97.96901 amu.
 Principal axes and moments of inertia in atomic units:
                           1         2         3
     Eigenvalues --    62.392661225.718851265.19126
           X            0.99998   0.00637  -0.00002
           Y           -0.00637   0.99998   0.00000
           Z            0.00002   0.00000   1.00000
 This molecule is an asymmetric top.
 Rotational symmetry number  1.
 Rotational temperatures (Kelvin)      1.38821     0.07066     0.06846
 Rotational constants (GHZ):          28.92554     1.47239     1.42646
 Zero-point vibrational energy     153775.5 (Joules/Mol)
                                   36.75323 (Kcal/Mol)
 Warning -- explicit consideration of   3 degrees of freedom as
           vibrations may cause significant error
 Vibrational temperatures:    178.14   315.03   429.24  1008.94  1074.82
          (Kelvin)           1143.57  1474.50  1529.89  1671.00  1847.47
                             1885.78  1963.00  2174.03  2177.98  4478.31
                             4488.50  4558.40  4591.29

 Zero-point correction=                           0.058570 (Hartree/Particle)
 Thermal correction to Energy=                    0.063456
 Thermal correction to Enthalpy=                  0.064400
 Thermal correction to Gibbs Free Energy=         0.029602
 Sum of electronic and zero-point Energies=           -998.970913
 Sum of electronic and thermal Energies=              -998.966027
 Sum of electronic and thermal Enthalpies=            -998.965083
 Sum of electronic and thermal Free Energies=         -998.999881

                     E (Thermal)             CV                S
                      KCal/Mol        Cal/Mol-Kelvin    Cal/Mol-Kelvin
 Total                   39.819             15.065             73.239
 Electronic               0.000              0.000              0.000
 Translational            0.889              2.981             39.657
 Rotational               0.889              2.981             26.073
 Vibrational             38.042              9.104              7.509
 Vibration     1          0.610              1.929              3.040
 Vibration     2          0.647              1.812              1.968
 Vibration     3          0.691              1.677              1.426

 Optimization completed.
    -- Stationary point found.
 Normal termination of Gaussian 16 at Fri Sep 15 07:32:54 2023.
