 Gaussian 16, Revision B.01,
 Gaussian 16:  EM64L-G16RevB.01 20-Dec-2017

 ----------------------------------------------------------------------
 # opt freq b3lyp/gen empiricaldispersion=gd3 pseudo=read scf=maxcycle=
 1000 volume
 ----------------------------------------------------------------------

 -------------------
 Title Card Required
 -------------------
 Symbolic Z-matrix:
 Charge =  0 Multiplicity = 1

 SCF Done:  E(RB3LYP) =  -261.432151334     A.U. after   15 cycles
 SCF Done:  E(RB3LYP) =  -261.432152171     A.U. after    8 cycles
 SCF Done:  E(RB3LYP) =  -261.432152239     A.U. after    7 cycles
 Optimization completed.
    -- Stationary point found.
 Normal termination of Gaussian 16 at Wed Sep 13 09:43:03 2023.

 ------------------------------------------------------------------
 #N Geom=AllCheck Guess=TCheck SCRF=Check GenChk RB3LYP/ChkBas Freq
 ------------------------------------------------------------------

 Structure from the checkpoint file:  "KOtBu-vol.chk"
 -------------------
 Title Card Required
 -------------------
 Charge =  0 Multiplicity = 1

                         Standard orientation:
 ---------------------------------------------------------------------
 Center     Atomic      Atomic             Coordinates (Angstroms)
 Number     Number       Type             X           Y           Z
 ---------------------------------------------------------------------
      1          6           0       -0.185236   -1.081925    0.000000
      2          6           0        0.440493   -1.735849    1.259554
      3          1           0        0.280805   -2.823784    1.304674
      4          1           0        1.521233   -1.541717    1.271977
      5          1           0        0.004845   -1.282375    2.159780
      6          6           0        0.440493   -1.735849   -1.259554
      7          1           0        0.280805   -2.823784   -1.304674
      8          1           0        0.004845   -1.282375   -2.159780
      9          1           0        1.521233   -1.541717   -1.271977
     10          6           0       -1.709759   -1.367441    0.000000
     11          1           0       -2.165888   -0.910213    0.888110
     12          1           0       -2.165888   -0.910213   -0.888110
     13          1           0       -1.946873   -2.442101    0.000000
     14          8           0        0.047446    0.276047    0.000000
     15         19           0        0.440493    2.572437    0.000000
 ---------------------------------------------------------------------

 SCF Done:  E(RB3LYP) =  -261.432152239     A.U. after    1 cycles

 The electronic state is 1-A'.
 Alpha  occ. eigenvalues --  -18.99793 -10.16423 -10.11071 -10.11071 -10.11068
 Alpha  occ. eigenvalues --   -1.40164  -0.86896  -0.74508  -0.74508  -0.73956
 Alpha  occ. eigenvalues --   -0.69303  -0.62831  -0.62831  -0.46586  -0.38303
 Alpha  occ. eigenvalues --   -0.38302  -0.38169  -0.33875  -0.33874  -0.31156
 Alpha  occ. eigenvalues --   -0.28379  -0.28006  -0.28006  -0.15245  -0.15245
 Alpha virt. eigenvalues --   -0.06012  -0.00106  -0.00105   0.01078   0.02792
 Alpha virt. eigenvalues --    0.05514   0.06432   0.06432   0.09193   0.09473
 Alpha virt. eigenvalues --    0.09473   0.10722   0.11208   0.11208   0.13568

 Mulliken charges:
               1
     1  C   -0.011710
     2  C   -0.561056
     3  H    0.176435
     4  H    0.186419
     5  H    0.186402
     6  C   -0.561056
     7  H    0.176435
     8  H    0.186402
     9  H    0.186419
    10  C   -0.561125
    11  H    0.186406
    12  H    0.186406
    13  H    0.176444
    14  O   -0.930321
    15  K    0.977502
 Sum of Mulliken charges =   0.00000

 Dipole moment (field-independent basis, Debye):
    X=              1.7577    Y=             10.2681    Z=              0.0000  Tot=             10.4175
 Quadrupole moment (field-independent basis, Debye-Ang):
   XX=            -46.9805   YY=            -18.7597   ZZ=            -47.8334
   XY=              4.9781   XZ=              0.0000   YZ=              0.0000

  Exact polarizability:  72.783   0.653  76.506   0.000   0.000  72.674
 Approx polarizability:  88.843   1.057  94.850   0.000   0.000  88.663

                      1                      2                      3
                     A'                     A"                     A"
 Frequencies --     46.1941                46.3306               228.0239
 Red. masses --      4.5378                 4.5395                 1.0119
 Frc consts  --      0.0057                 0.0057                 0.0310
 IR Inten    --     24.1803                24.1820                 0.0000

                      4                      5                      6
                     A'                     A'                     A"
 Frequencies --    242.6120               288.9204               289.1443
 Red. masses --      6.8181                 1.0485                 1.0487
 Frc consts  --      0.2364                 0.0516                 0.0517
 IR Inten    --     24.4094                 0.0273                 0.0257

                      7                      8                      9
                     A'                     A"                     A'
 Frequencies --    348.5215               348.7417               463.7871
 Red. masses --      2.4589                 2.4593                 2.4764
 Frc consts  --      0.1760                 0.1762                 0.3138
 IR Inten    --      3.5188                 3.5413                14.7238

                     10                     11                     12
                     A'                     A"                     A'
 Frequencies --    483.4790               483.6354               748.3612
 Red. masses --      2.9972                 2.9957                 3.4817
 Frc consts  --      0.4128                 0.4128                 1.1489
 IR Inten    --      9.7647                 9.7430                 0.0220

                     13                     14                     15
                     A'                     A"                     A"
 Frequencies --    875.6019               875.7908               947.9555
 Red. masses --      1.7786                 1.7788                 1.1945
 Frc consts  --      0.8034                 0.8038                 0.6324
 IR Inten    --      4.9337                 4.9368                 0.0000

                     16                     17                     18
                     A'                     A'                     A"
 Frequencies --   1032.1323              1040.3803              1040.4659
 Red. masses --      2.4617                 1.3835                 1.3827
 Frc consts  --      1.5451                 0.8823                 0.8819
 IR Inten    --     93.1093                 0.1440                 0.1046

                     19                     20                     21
                     A'                     A"                     A'
 Frequencies --   1231.1391              1231.2257              1252.3611
 Red. masses --      2.6819                 2.6818                 3.5864
 Frc consts  --      2.3950                 2.3953                 3.3141
 IR Inten    --     17.6906                17.6933               179.9922

                     22                     23                     24
                     A'                     A"                     A'
 Frequencies --   1388.6218              1388.7953              1415.0552
 Red. masses --      1.2555                 1.2555                 1.2273
 Frc consts  --      1.4264                 1.4267                 1.4479
 IR Inten    --     14.5985                14.6159                 1.2669

                     25                     26                     27
                     A"                     A"                     A'
 Frequencies --   1488.4192              1500.2406              1500.3018
 Red. masses --      1.0534                 1.0471                 1.0471
 Frc consts  --      1.3750                 1.3885                 1.3887
 IR Inten    --      0.0001                 0.2496                 0.2616

                     28                     29                     30
                     A"                     A'                     A'
 Frequencies --   1511.4823              1511.4964              1531.7940
 Red. masses --      1.0565                 1.0565                 1.0505
 Frc consts  --      1.4221                 1.4221                 1.4523
 IR Inten    --      4.7780                 4.7751                 0.8753

                     31                     32                     33
                     A"                     A'                     A'
 Frequencies --   3001.2434              3001.3313              3014.7065
 Red. masses --      1.0357                 1.0356                 1.0356
 Frc consts  --      5.4965                 5.4965                 5.5455
 IR Inten    --     69.9420                70.0514                54.4522

                     34                     35                     36
                     A"                     A'                     A'
 Frequencies --   3064.5849              3064.6436              3077.6148
 Red. masses --      1.0984                 1.0985                 1.0983
 Frc consts  --      6.0780                 6.0784                 6.1291
 IR Inten    --      8.3981                 8.2763               170.6527

                     37                     38                     39
                     A"                     A"                     A'
 Frequencies --   3078.4461              3086.4529              3086.4833
 Red. masses --      1.1037                 1.1010                 1.1010
 Frc consts  --      6.1627                 6.1797                 6.1798
 IR Inten    --      0.0007                93.9145                93.8980

 - Thermochemistry -
 -------------------
 Temperature   298.150 Kelvin.  Pressure   1.00000 Atm.
 Atom     1 has atomic number  6 and mass  12.00000

 Molecular mass:   112.02905 amu.
 Principal axes and moments of inertia in atomic units:
                           1         2         3
     Eigenvalues --   398.236431652.021321652.02781
           X            0.16878   0.00000   0.98565
           Y            0.98565   0.00000  -0.16878
           Z            0.00000   1.00000   0.00000
 This molecule is an asymmetric top.
 Rotational symmetry number  1.
 Rotational temperatures (Kelvin)      0.21749     0.05243     0.05243
 Rotational constants (GHZ):           4.53183     1.09244     1.09244
 Zero-point vibrational energy     324526.0 (Joules/Mol)
                                   77.56359 (Kcal/Mol)
 Warning -- explicit consideration of  11 degrees of freedom as
           vibrations may cause significant error
 Vibrational temperatures:     66.46    66.66   328.08   349.06   415.69
          (Kelvin)            416.01   501.44   501.76   667.29   695.62
                              695.84  1076.72  1259.80  1260.07  1363.90
                             1485.01  1496.88  1497.00  1771.33  1771.46
                             1801.87  1997.92  1998.17  2035.95  2141.50
                             2158.51  2158.60  2174.69  2174.71  2203.91
                             4318.12  4318.25  4337.49  4409.25  4409.34
                             4428.00  4429.20  4440.72  4440.76

 Zero-point correction=                           0.123605 (Hartree/Particle)
 Thermal correction to Energy=                    0.131905
 Thermal correction to Enthalpy=                  0.132850
 Thermal correction to Gibbs Free Energy=         0.089727
 Sum of electronic and zero-point Energies=           -261.308547
 Sum of electronic and thermal Energies=              -261.300247
 Sum of electronic and thermal Enthalpies=            -261.299303
 Sum of electronic and thermal Free Energies=         -261.342426

                     E (Thermal)             CV                S
                      KCal/Mol        Cal/Mol-Kelvin    Cal/Mol-Kelvin
 Total                   82.772             28.504             90.760
 Electronic               0.000              0.000              0.000
 Translational            0.889              2.981             40.057
 Rotational               0.889              2.981             28.476
 Vibrational             80.994             22.542             22.227
 Vibration     1          0.595              1.979              4.974
 Vibration     2          0.595              1.979              4.968
 Vibration     3          0.651              1.798              1.894
 Vibration     4          0.659              1.775              1.784
 Vibration     5          0.685              1.694              1.480
 Vibration     6          0.686              1.694              1.479
 Vibration     7          0.726              1.578              1.173
 Vibration     8          0.726              1.578              1.172
 Vibration     9          0.821              1.330              0.755
 Vibration    10          0.840              1.287              0.701
 Vibration    11          0.840              1.286              0.700

 Optimization completed.
    -- Stationary point found.
 Normal termination of Gaussian 16 at Wed Sep 13 09:43:54 2023.
