 Gaussian 16, Revision B.01,
 Gaussian 16:  EM64L-G16RevB.01 20-Dec-2017

 ----------------------------------------------------------------------
 # opt freq b3lyp/gen empiricaldispersion=gd3 pseudo=read scf=maxcycle=
 1000 volume
 ----------------------------------------------------------------------

 -------------------
 Title Card Required
 -------------------
 Symbolic Z-matrix:
 Charge =  0 Multiplicity = 1

 SCF Done:  E(RB3LYP) =  -588.515845364     A.U. after   12 cycles
 Optimization completed.
    -- Stationary point found.
 Normal termination of Gaussian 16 at Thu Sep 14 07:09:29 2023.

 ------------------------------------------------------------------
 #N Geom=AllCheck Guess=TCheck SCRF=Check GenChk RB3LYP/ChkBas Freq
 ------------------------------------------------------------------

 Structure from the checkpoint file:  "Na2CO3-vol.chk"
 -------------------
 Title Card Required
 -------------------
 Charge =  0 Multiplicity = 1

                         Standard orientation:
 ---------------------------------------------------------------------
 Center     Atomic      Atomic             Coordinates (Angstroms)
 Number     Number       Type             X           Y           Z
 ---------------------------------------------------------------------
      1          6           0        0.000000    0.000000   -0.572049
      2          8           0        0.000000    1.133648   -1.166505
      3          8           0        0.000000    0.000000    0.790505
      4          8           0        0.000000   -1.133648   -1.166505
      5         11           0        0.000000   -2.164428    0.716924
      6         11           0        0.000000    2.164428    0.716924
 ---------------------------------------------------------------------

 SCF Done:  E(RB3LYP) =  -588.515845364     A.U. after    1 cycles

 The electronic state is 1-A1.
 Alpha  occ. eigenvalues --  -38.47305 -38.47275 -19.05780 -19.04436 -19.04430
 Alpha  occ. eigenvalues --  -10.25727  -2.20974  -2.20966  -1.14309  -1.14289
 Alpha  occ. eigenvalues --   -1.14287  -1.14169  -1.14052  -1.14030  -0.99727
 Alpha  occ. eigenvalues --   -0.88830  -0.87141  -0.44520  -0.38439  -0.37236
 Alpha  occ. eigenvalues --   -0.36628  -0.25752  -0.22237  -0.21872  -0.20912
 Alpha  occ. eigenvalues --   -0.17990
 Alpha virt. eigenvalues --   -0.04745  -0.03890   0.01134   0.01660   0.02781
 Alpha virt. eigenvalues --    0.03422   0.03591   0.05412   0.08224   0.10256
 Alpha virt. eigenvalues --    0.12348   0.12632   0.12878   0.13288   0.15429

 Mulliken charges:
               1
     1  C    0.738186
     2  O   -0.754234
     3  O   -1.047411
     4  O   -0.754234
     5  Na   0.908847
     6  Na   0.908847
 Sum of Mulliken charges =   0.00000

 Dipole moment (field-independent basis, Debye):
    X=              0.0000    Y=              0.0000    Z=              8.7609  Tot=              8.7609
 Quadrupole moment (field-independent basis, Debye-Ang):
   XX=            -32.0510   YY=             -1.7968   ZZ=            -39.9019
   XY=              0.0000   XZ=              0.0000   YZ=              0.0000

  Exact polarizability:  28.009   0.000  54.105   0.000   0.000  42.818
 Approx polarizability:  34.227   0.000  65.059   0.000   0.000  53.149

                      1                      2                      3
                     A2                     B1                     A1
 Frequencies --    116.1234               123.0191               202.1965
 Red. masses --     16.8149                17.2119                20.4290
 Frc consts  --      0.1336                 0.1535                 0.4921
 IR Inten    --      0.0000                56.5327                27.6241

                      4                      5                      6
                     A1                     B2                     B2
 Frequencies --    341.7499               355.5128               371.0929
 Red. masses --     20.3932                17.8902                18.1432
 Frc consts  --      1.4033                 1.3322                 1.4721
 IR Inten    --     48.4170                 9.6532               100.5706

                      7                      8                      9
                     A1                     B2                     B1
 Frequencies --    689.2782               729.1879               839.0098
 Red. masses --     15.8716                15.8647                12.6724
 Frc consts  --      4.4428                 4.9701                 5.2559
 IR Inten    --      0.2136                 6.7363                20.1753

                     10                     11                     12
                     A1                     A1                     B2
 Frequencies --    987.1414              1312.1384              1576.8051
 Red. masses --     15.4087                13.2669                12.8427
 Frc consts  --      8.8466                13.4580                18.8132
 IR Inten    --    120.8038               604.5150               793.0597

 - Thermochemistry -
 -------------------
 Temperature   298.150 Kelvin.  Pressure   1.00000 Atm.
 Atom     1 has atomic number  6 and mass  12.00000

 Molecular mass:   105.96428 amu.
 Principal axes and moments of inertia in atomic units:
                           1         2         3
     Eigenvalues --   289.48861 916.030121205.51873
           X            0.00000   0.00000   1.00000
           Y            1.00000   0.00000   0.00000
           Z            0.00000   1.00000   0.00000
 This molecule is an asymmetric top.
 Rotational symmetry number  2.
 Rotational temperatures (Kelvin)      0.29920     0.09455     0.07185
 Rotational constants (GHZ):           6.23424     1.97018     1.49707
 Zero-point vibrational energy      45716.8 (Joules/Mol)
                                   10.92658 (Kcal/Mol)
 Warning -- explicit consideration of   6 degrees of freedom as
           vibrations may cause significant error
 Vibrational temperatures:    167.08   177.00   290.92   491.70   511.50
          (Kelvin)            533.92   991.72  1049.14  1207.15  1420.28
                             1887.87  2268.67

 Zero-point correction=                           0.017413 (Hartree/Particle)
 Thermal correction to Energy=                    0.023602
 Thermal correction to Enthalpy=                  0.024546
 Thermal correction to Gibbs Free Energy=        -0.012717
 Sum of electronic and zero-point Energies=           -588.498433
 Sum of electronic and thermal Energies=              -588.492244
 Sum of electronic and thermal Enthalpies=            -588.491299
 Sum of electronic and thermal Free Energies=         -588.528563

                     E (Thermal)             CV                S
                      KCal/Mol        Cal/Mol-Kelvin    Cal/Mol-Kelvin
 Total                   14.810             19.155             78.427
 Electronic               0.000              0.000              0.000
 Translational            0.889              2.981             39.891
 Rotational               0.889              2.981             25.883
 Vibrational             13.033             13.194             12.653
 Vibration     1          0.608              1.936              3.164
 Vibration     2          0.610              1.930              3.052
 Vibration     3          0.639              1.837              2.113
 Vibration     4          0.721              1.592              1.204
 Vibration     5          0.731              1.564              1.142
 Vibration     6          0.743              1.532              1.075

                           ! Non-Optimized Parameters !
 Normal termination of Gaussian 16 at Thu Sep 14 07:10:58 2023.
