 Gaussian 16, Revision B.01,
 Gaussian 16:  EM64L-G16RevB.01 20-Dec-2017

 ----------------------------------------------------------------------
 # opt freq b3lyp/gen scf=(qc,maxcycle=1000) empiricaldispersion=gd3 ps
 eudo=read volume
 ----------------------------------------------------------------------

 ----
 NaOH
 ----
 Symbolic Z-matrix:
 Charge =  0 Multiplicity = 1

 SCF Done:  E(RB3LYP) =  -104.160366926     a.u. after    9 cycles
 SCF Done:  E(RB3LYP) =  -104.160367331     a.u. after    2 cycles
 Optimization completed.
    -- Stationary point found.
 Normal termination of Gaussian 16 at Wed Sep 20 06:38:40 2023.

 ------------------------------------------------------------------
 #N Geom=AllCheck Guess=TCheck SCRF=Check GenChk RB3LYP/ChkBas Freq
 ------------------------------------------------------------------

 Structure from the checkpoint file:  "KOH-6-31-GEN-1-vol.chk"
 ----
 NaOH
 ----
 Charge =  0 Multiplicity = 1

                         Standard orientation:
 ---------------------------------------------------------------------
 Center     Atomic      Atomic             Coordinates (Angstroms)
 Number     Number       Type             X           Y           Z
 ---------------------------------------------------------------------
      1          8           0        0.000000    0.000000    1.537700
      2          1           0        0.000000    0.000000    2.502844
      3         19           0        0.000000    0.000000   -0.779181
 ---------------------------------------------------------------------

 SCF Done:  E(RB3LYP) =  -104.160367331     a.u. after    1 cycles

 The electronic state is 1-SG.
 Alpha  occ. eigenvalues --  -18.98193  -1.38996  -0.79844  -0.73329  -0.73329
 Alpha  occ. eigenvalues --   -0.71844  -0.30023  -0.15321  -0.15321
 Alpha virt. eigenvalues --   -0.05369   0.00654   0.00654   0.02250   0.03662
 Alpha virt. eigenvalues --    0.18087   0.23751   0.23751   0.26149   0.26149
 Alpha virt. eigenvalues --    0.27793   0.34226   0.36708   0.89651   1.17706

 Mulliken charges:
               1
     1  O   -1.405820
     2  H    0.454579
     3  K    0.951241
 Sum of Mulliken charges =   0.00000

 Dipole moment (field-independent basis, Debye):
    X=              0.0000    Y=              0.0000    Z=             -8.6799  Tot=              8.6799
 Quadrupole moment (field-independent basis, Debye-Ang):
   XX=            -18.6295   YY=            -18.6295   ZZ=            -17.7591
   XY=              0.0000   XZ=              0.0000   YZ=              0.0000

  Exact polarizability:  18.698   0.000  18.698   0.000   0.000  18.250
 Approx polarizability:  16.751   0.000  16.751   0.000   0.000  19.309

                      1                      2                      3
                     PI                     PI                     SG
 Frequencies --    354.4507               354.4507               412.3331
 Red. masses --      1.1306                 1.1306                11.0659
 Frc consts  --      0.0837                 0.0837                 1.1085
 IR Inten    --    129.9531               129.9531                73.5402

                      4
                     SG
 Frequencies --   3840.5998
 Red. masses --      1.0679
 Frc consts  --      9.2803
 IR Inten    --      0.0564

 - Thermochemistry -
 -------------------
 Temperature   298.150 Kelvin.  Pressure   1.00000 Atm.
 Atom     1 has atomic number  8 and mass  15.99491

 Molecular mass:    55.96645 amu.
 Principal axes and moments of inertia in atomic units:
                           1         2         3
     Eigenvalues --     0.00000 241.40945 241.40945
           X            0.00000   0.92404   0.38230
           Y            0.00000  -0.38230   0.92404
           Z            1.00000   0.00000   0.00000
 This molecule is a prolate symmetric top.
 Rotational symmetry number  1.
 Rotational temperature (Kelvin)      0.35878
 Rotational constant (GHZ):           7.475851
 Zero-point vibrational energy      29678.4 (Joules/Mol)
                                    7.09330 (Kcal/Mol)
 Warning -- explicit consideration of   3 degrees of freedom as
           vibrations may cause significant error
 Vibrational temperatures:    509.98   509.98   593.26  5525.77
          (Kelvin)

 Zero-point correction=                           0.011304 (Hartree/Particle)
 Thermal correction to Energy=                    0.014675
 Thermal correction to Enthalpy=                  0.015619
 Thermal correction to Gibbs Free Energy=        -0.011248
 Sum of electronic and zero-point Energies=           -104.149063
 Sum of electronic and thermal Energies=              -104.145693
 Sum of electronic and thermal Enthalpies=            -104.144748
 Sum of electronic and thermal Free Energies=         -104.171615

                     E (Thermal)             CV                S
                      KCal/Mol        Cal/Mol-Kelvin    Cal/Mol-Kelvin
 Total                    9.209              9.544             56.545
 Electronic               0.000              0.000              0.000
 Translational            0.889              2.981             37.988
 Rotational               0.592              1.987             15.346
 Vibrational              7.727              4.576              3.211
 Vibration     1          0.730              1.566              1.146
 Vibration     2          0.730              1.566              1.146
 Vibration     3          0.776              1.443              0.918

 Optimization completed.
    -- Stationary point found.
 Normal termination of Gaussian 16 at Wed Sep 20 06:38:43 2023.
