 Gaussian 16, Revision B.01,
 Gaussian 16:  EM64L-G16RevB.01 20-Dec-2017

 ---------------------------------------------------------
 # opt freq b3lyp/6-31+g(d) empiricaldispersion=gd3 volume
 ---------------------------------------------------------

 -------------------
 Title Card Required
 -------------------
 Symbolic Z-matrix:
 Charge =  0 Multiplicity = 1

 SCF Done:  E(RB3LYP) =  -1036.35618137     A.U. after   15 cycles
 SCF Done:  E(RB3LYP) =  -1036.35618637     A.U. after   12 cycles
 SCF Done:  E(RB3LYP) =  -1036.35618239     A.U. after   12 cycles
 SCF Done:  E(RB3LYP) =  -1036.35618034     A.U. after   11 cycles
 SCF Done:  E(RB3LYP) =  -1036.35618204     A.U. after   11 cycles
 SCF Done:  E(RB3LYP) =  -1036.35618228     A.U. after   12 cycles
 Optimization completed.
    -- Stationary point found.
 Normal termination of Gaussian 16 at Mon Sep 18 05:32:38 2023.

 ---------------------------------------------------------------------
 #N Geom=AllCheck Guess=TCheck SCRF=Check GenChk RB3LYP/6-31+G(d) Freq
 ---------------------------------------------------------------------

 Structure from the checkpoint file:  "MOLECULE_3-volume.chk"
 -------------------
 Title Card Required
 -------------------
 Charge =  0 Multiplicity = 1

                         Standard orientation:
 ---------------------------------------------------------------------
 Center     Atomic      Atomic             Coordinates (Angstroms)
 Number     Number       Type             X           Y           Z
 ---------------------------------------------------------------------
      1         15           0        0.000364   -0.000444   -1.262620
      2          6           0       -0.360586    1.620159   -0.438304
      3          6           0       -1.373053    2.414424   -1.004265
      4          6           0        0.311172    2.096131    0.698829
      5          6           0       -1.720478    3.642513   -0.437466
      6          1           0       -1.894736    2.067757   -1.894229
      7          6           0       -0.026901    3.332058    1.258931
      8          1           0        1.100516    1.502270    1.150611
      9          6           0       -1.045400    4.106293    0.696336
     10          1           0       -2.510227    4.240392   -0.885851
     11          1           0        0.505033    3.686867    2.138573
     12          1           0       -1.307834    5.066173    1.134119
     13          6           0       -1.222500   -1.122768   -0.437180
     14          6           0       -1.966167   -0.780197    0.703263
     15          6           0       -1.409530   -2.394512   -1.006357
     16          6           0       -2.868432   -1.689962    1.263413
     17          1           0       -1.842432    0.198680    1.157554
     18          6           0       -2.300414   -3.308442   -0.439591
     19          1           0       -0.852183   -2.671861   -1.899001
     20          6           0       -3.035144   -2.956899    0.697482
     21          1           0       -3.438341   -1.407609    2.145507
     22          1           0       -2.427740   -4.289546   -0.890630
     23          1           0       -3.736105   -3.663290    1.135151
     24          6           0        1.584134   -0.497616   -0.437461
     25          6           0        1.659901   -1.313356    0.702542
     26          6           0        2.778656   -0.022472   -1.006333
     27          6           0        2.899144   -1.639215    1.262527
     28          1           0        0.750546   -1.696570    1.156480
     29          6           0        4.015850   -0.336274   -0.439714
     30          1           0        2.739619    0.599454   -1.898553
     31          6           0        4.079381   -1.148963    0.696882
     32          1           0        2.939984   -2.274340    2.144325
     33          1           0        4.928861    0.045099   -0.890472
     34          1           0        5.041789   -1.402227    1.134512
 ---------------------------------------------------------------------

 SCF Done:  E(RB3LYP) =  -1036.35618228     A.U. after    1 cycles

 The electronic state is 1-A.
 Alpha  occ. eigenvalues --  -77.09302 -10.20462 -10.20460 -10.20460 -10.20150
 Alpha  occ. eigenvalues --  -10.20150 -10.20147 -10.20108 -10.20108 -10.20106
 Alpha  occ. eigenvalues --  -10.20040 -10.20040 -10.20038 -10.20021 -10.20020
 Alpha  occ. eigenvalues --  -10.20019 -10.19906 -10.19904 -10.19902  -6.55898
 Alpha  occ. eigenvalues --   -4.72167  -4.72167  -4.71669  -0.86594  -0.85836
 Alpha  occ. eigenvalues --   -0.85835  -0.77694  -0.75349  -0.75348  -0.75260
 Alpha  occ. eigenvalues --   -0.74760  -0.74759  -0.65407  -0.61274  -0.61272
 Alpha  occ. eigenvalues --   -0.61180  -0.60111  -0.60111  -0.56345  -0.52300
 Alpha  occ. eigenvalues --   -0.52300  -0.50158  -0.46325  -0.46324  -0.45715
 Alpha  occ. eigenvalues --   -0.45337  -0.45337  -0.44903  -0.42847  -0.42782
 Alpha  occ. eigenvalues --   -0.42781  -0.41288  -0.41285  -0.37833  -0.37238
 Alpha  occ. eigenvalues --   -0.37234  -0.36826  -0.35164  -0.35163  -0.35119
 Alpha  occ. eigenvalues --   -0.32808  -0.32805  -0.28020  -0.26427  -0.26422
 Alpha  occ. eigenvalues --   -0.26416  -0.25664  -0.25664  -0.22106
 Alpha virt. eigenvalues --   -0.03214  -0.03209  -0.02800  -0.01662  -0.01125
 Alpha virt. eigenvalues --   -0.01121   0.00065   0.00828   0.00831   0.02098
 Alpha virt. eigenvalues --    0.02700   0.02701   0.03225   0.03408   0.03411

 Mulliken charges:
               1
     1  P    0.353943
     2  C   -0.066626
     3  C   -0.396168
     4  C    0.499760
     5  C   -0.489670
     6  H    0.187978
     7  C   -0.368693
     8  H    0.205301
     9  C   -0.230757
    10  H    0.180600
    11  H    0.180754
    12  H    0.179743
    13  C   -0.072907
    14  C    0.501308
    15  C   -0.391298
    16  C   -0.368981
    17  H    0.205200
    18  C   -0.491303
    19  H    0.188016
    20  C   -0.229593
    21  H    0.180766
    22  H    0.180608
    23  H    0.179755
    24  C   -0.069046
    25  C    0.501071
    26  C   -0.393469
    27  C   -0.370175
    28  H    0.205144
    29  C   -0.490018
    30  H    0.188000
    31  C   -0.230376
    32  H    0.180767
    33  H    0.180610
    34  H    0.179758
 Sum of Mulliken charges =   0.00000

 Dipole moment (field-independent basis, Debye):
    X=             -0.0015    Y=             -0.0020    Z=              1.4622  Tot=              1.4622
 Quadrupole moment (field-independent basis, Debye-Ang):
   XX=           -111.4101   YY=           -111.4631   ZZ=           -118.3825
   XY=              0.0110   XZ=              0.0044   YZ=              0.0143

  Exact polarizability: 256.251   0.031 256.053   0.011   0.068 191.652
 Approx polarizability: 375.520   0.086 375.137   0.029   0.170 346.079

                      1                      2                      3
                      A                      A                      A
 Frequencies --     24.0450                25.5806                43.6019
 Red. masses --      3.7702                 3.7768                 3.6784
 Frc consts  --      0.0013                 0.0015                 0.0041
 IR Inten    --      0.2540                 0.2545                 0.0066

                      4                      5                      6
                      A                      A                      A
 Frequencies --     53.5401                53.6272                68.6867
 Red. masses --      5.2451                 5.2362                 5.1873
 Frc consts  --      0.0089                 0.0089                 0.0144
 IR Inten    --      0.1338                 0.1381                 0.4121

                      7                      8                      9
                      A                      A                      A
 Frequencies --    187.4195               205.0186               205.4597
 Red. masses --      4.5416                 4.6115                 4.6104
 Frc consts  --      0.0940                 0.1142                 0.1147
 IR Inten    --      0.3451                 1.1314                 1.1365

                     10                     11                     12
                      A                      A                      A
 Frequencies --    247.3451               261.3291               261.5673
 Red. masses --      5.5906                 4.7506                 4.7553
 Frc consts  --      0.2015                 0.1912                 0.1917
 IR Inten    --      0.7854                 0.2209                 0.2227

                     13                     14                     15
                      A                      A                      A
 Frequencies --    407.2230               407.4425               410.3940
 Red. masses --      2.9765                 2.9775                 3.7052
 Frc consts  --      0.2908                 0.2912                 0.3677
 IR Inten    --      1.7730                 1.7915                 0.1427

                     16                     17                     18
                      A                      A                      A
 Frequencies --    415.2382               429.6608               429.8613
 Red. masses --      4.3054                 7.4195                 7.4432
 Frc consts  --      0.4374                 0.8070                 0.8103
 IR Inten    --      0.5207                 6.8049                 6.8926

                     19                     20                     21
                      A                      A                      A
 Frequencies --    507.1406               507.3415               519.1307
 Red. masses --      4.0856                 4.0801                 4.3672
 Frc consts  --      0.6191                 0.6188                 0.6934
 IR Inten    --     27.1160                27.0500                19.5003

                     22                     23                     24
                      A                      A                      A
 Frequencies --    631.1272               631.1483               631.4730
 Red. masses --      6.4506                 6.4513                 6.4649
 Frc consts  --      1.5139                 1.5141                 1.5189
 IR Inten    --      0.1847                 0.1871                 0.0085

                     25                     26                     27
                      A                      A                      A
 Frequencies --    691.8019               704.1301               704.1323
 Red. masses --      6.6271                 5.2102                 5.2948
 Frc consts  --      1.8687                 1.5220                 1.5467
 IR Inten    --      1.0934                 1.2688                 1.0858

                     28                     29                     30
                      A                      A                      A
 Frequencies --    708.7360               708.7987               709.1372
 Red. masses --      2.1329                 2.1146                 1.9812
 Frc consts  --      0.6312                 0.6259                 0.5870
 IR Inten    --     37.5416                37.6311                30.4071

                     31                     32                     33
                      A                      A                      A
 Frequencies --    757.4531               758.4401               758.5503
 Red. masses --      1.6929                 1.7087                 1.7100
 Frc consts  --      0.5723                 0.5791                 0.5797
 IR Inten    --     28.4876                36.2228                35.8432

                     34                     35                     36
                      A                      A                      A
 Frequencies --    861.8161               861.9653               865.4409
 Red. masses --      1.2488                 1.2486                 1.2479
 Frc consts  --      0.5465                 0.5466                 0.5507
 IR Inten    --      0.0619                 0.0579                 0.2357

                     37                     38                     39
                      A                      A                      A
 Frequencies --    933.3693               933.4826               934.3400
 Red. masses --      1.3551                 1.3552                 1.3504
 Frc consts  --      0.6956                 0.6958                 0.6946
 IR Inten    --      1.0272                 1.0040                 0.0211

                     40                     41                     42
                      A                      A                      A
 Frequencies --    986.5015               986.6297               988.3594
 Red. masses --      1.3794                 1.3790                 1.3733
 Frc consts  --      0.7909                 0.7909                 0.7904
 IR Inten    --      0.0006                 0.0010                 0.2573

                     43                     44                     45
                      A                      A                      A
 Frequencies --   1004.2019              1004.2320              1004.7453
 Red. masses --      1.2807                 1.2807                 1.2799
 Frc consts  --      0.7609                 0.7610                 0.7612
 IR Inten    --      0.0156                 0.0167                 0.0255

                     46                     47                     48
                      A                      A                      A
 Frequencies --   1013.6478              1013.6900              1014.0399
 Red. masses --      6.2978                 6.2981                 6.3029
 Frc consts  --      3.8125                 3.8130                 3.8186
 IR Inten    --      3.1089                 3.1208                 0.0564

                     49                     50                     51
                      A                      A                      A
 Frequencies --   1048.3871              1048.4594              1049.0314
 Red. masses --      3.3280                 3.3324                 3.2318
 Frc consts  --      2.1551                 2.1583                 2.0954
 IR Inten    --      4.2946                 4.2639                 0.1411

                     52                     53                     54
                      A                      A                      A
 Frequencies --   1107.4337              1107.5596              1109.0517
 Red. masses --      2.2500                 2.2379                 1.7220
 Frc consts  --      1.6258                 1.6174                 1.2479
 IR Inten    --     10.9298                10.9392                 2.8631

                     55                     56                     57
                      A                      A                      A
 Frequencies --   1109.4009              1109.5829              1115.2502
 Red. masses --      1.9030                 1.9143                 2.6115
 Frc consts  --      1.3799                 1.3886                 1.9137
 IR Inten    --      2.5121                 2.5542                 2.7285

                     58                     59                     60
                      A                      A                      A
 Frequencies --   1199.2614              1199.6738              1199.7120
 Red. masses --      1.1148                 1.1108                 1.1108
 Frc consts  --      0.9446                 0.9419                 0.9420
 IR Inten    --      0.0244                 0.1212                 0.1151

                     61                     62                     63
                      A                      A                      A
 Frequencies --   1224.5764              1224.8974              1226.0398
 Red. masses --      1.1546                 1.1551                 1.1543
 Frc consts  --      1.0201                 1.0211                 1.0223
 IR Inten    --      5.1619                 5.0647                 0.7908

                     64                     65                     66
                      A                      A                      A
 Frequencies --   1322.2417              1326.7041              1326.8612
 Red. masses --      3.6067                 3.6238                 3.6641
 Frc consts  --      3.7152                 3.7581                 3.8008
 IR Inten    --      2.4977                 2.4217                 2.4363

                     67                     68                     69
                      A                      A                      A
 Frequencies --   1365.3801              1365.7830              1366.1649
 Red. masses --      1.5900                 1.5924                 1.5814
 Frc consts  --      1.7465                 1.7502                 1.7390
 IR Inten    --      2.9012                 0.3694                 0.4644

                     70                     71                     72
                      A                      A                      A
 Frequencies --   1473.5443              1474.7549              1474.8075
 Red. masses --      2.0758                 2.0875                 2.0881
 Frc consts  --      2.6557                 2.6750                 2.6759
 IR Inten    --     14.6071                 6.7021                 6.7098

                     73                     74                     75
                      A                      A                      A
 Frequencies --   1525.2282              1525.7740              1525.9152
 Red. masses --      1.9869                 1.9688                 1.9670
 Frc consts  --      2.7233                 2.7005                 2.6985
 IR Inten    --      1.9484                10.3687                10.3569

                     76                     77                     78
                      A                      A                      A
 Frequencies --   1620.9308              1621.6994              1621.7092
 Red. masses --      4.9633                 4.9962                 4.9926
 Frc consts  --      7.6833                 7.7416                 7.7361
 IR Inten    --      0.1333                 0.0984                 0.0978

                     79                     80                     81
                      A                      A                      A
 Frequencies --   1637.5764              1637.6174              1639.3941
 Red. masses --      5.1241                 5.1214                 5.1501
 Frc consts  --      8.0960                 8.0921                 8.1552
 IR Inten    --      5.6956                 5.6669                 0.1263

                     82                     83                     84
                      A                      A                      A
 Frequencies --   3169.3212              3169.3664              3169.3844
 Red. masses --      1.0866                 1.0866                 1.0865
 Frc consts  --      6.4307                 6.4306                 6.4306
 IR Inten    --      3.6367                 2.1481                 1.9020

                     85                     86                     87
                      A                      A                      A
 Frequencies --   3177.2205              3177.2290              3177.2573
 Red. masses --      1.0874                 1.0874                 1.0874
 Frc consts  --      6.4672                 6.4672                 6.4676
 IR Inten    --      0.4216                 0.3998                 0.0487

                     88                     89                     90
                      A                      A                      A
 Frequencies --   3188.1349              3188.1498              3188.2969
 Red. masses --      1.0915                 1.0915                 1.0916
 Frc consts  --      6.5363                 6.5365                 6.5377
 IR Inten    --     10.8334                11.0198                41.6374

                     91                     92                     93
                      A                      A                      A
 Frequencies --   3199.6115              3199.7381              3200.0344
 Red. masses --      1.0935                 1.0936                 1.0937
 Frc consts  --      6.5958                 6.5969                 6.5989
 IR Inten    --     32.7783                34.1760                 5.1919

                     94                     95                     96
                      A                      A                      A
 Frequencies --   3205.6006              3205.7535              3206.6490
 Red. masses --      1.0961                 1.0959                 1.0958
 Frc consts  --      6.6363                 6.6359                 6.6387
 IR Inten    --     23.5711                22.4891                15.4457

 - Thermochemistry -
 -------------------
 Temperature   298.150 Kelvin.  Pressure   1.00000 Atm.
 Atom     1 has atomic number 15 and mass  30.97376

 Molecular mass:   262.09114 amu.
 Principal axes and moments of inertia in atomic units:
                           1         2         3
     Eigenvalues --  5095.722825099.821148573.86791
           X            0.99993   0.01153   0.00001
           Y           -0.01153   0.99993   0.00002
           Z           -0.00001  -0.00002   1.00000
 This molecule is an asymmetric top.
 Rotational symmetry number  1.
 Warning -- assumption of classical behavior for rotation
           may cause significant error
 Rotational temperatures (Kelvin)      0.01700     0.01698     0.01010
 Rotational constants (GHZ):           0.35417     0.35388     0.21049
 Zero-point vibrational energy     719100.4 (Joules/Mol)
                                  171.86911 (Kcal/Mol)
 Warning -- explicit consideration of  21 degrees of freedom as
           vibrations may cause significant error
 Vibrational temperatures:     34.60    36.80    62.73    77.03    77.16
          (Kelvin)             98.82   269.65   294.98   295.61   355.87
                              375.99   376.34   585.90   586.22   590.47
                              597.44   618.19   618.47   729.66   729.95
                              746.91   908.05   908.08   908.55   995.35
                             1013.09  1013.09  1019.71  1019.80  1020.29
                             1089.81  1091.23  1091.38  1239.96  1240.18
                             1245.18  1342.91  1343.07  1344.31  1419.36
                             1419.54  1422.03  1444.82  1444.87  1445.60
                             1458.41  1458.47  1458.98  1508.40  1508.50
                             1509.32  1593.35  1593.53  1595.68  1596.18
                             1596.44  1604.60  1725.47  1726.06  1726.12
                             1761.89  1762.35  1764.00  1902.41  1908.83
                             1909.06  1964.48  1965.06  1965.61  2120.10
                             2121.84  2121.92  2194.46  2195.25  2195.45
                             2332.16  2333.26  2333.28  2356.11  2356.17
                             2358.72  4559.95  4560.01  4560.04  4571.31
                             4571.32  4571.36  4587.02  4587.04  4587.25
                             4603.53  4603.71  4604.14  4612.14  4612.36
                             4613.65

 Zero-point correction=                           0.273891 (Hartree/Particle)
 Thermal correction to Energy=                    0.289790
 Thermal correction to Enthalpy=                  0.290734
 Thermal correction to Gibbs Free Energy=         0.227683
 Sum of electronic and zero-point Energies=          -1036.082291
 Sum of electronic and thermal Energies=             -1036.066392
 Sum of electronic and thermal Enthalpies=           -1036.065448
 Sum of electronic and thermal Free Energies=        -1036.128499

                     E (Thermal)             CV                S
                      KCal/Mol        Cal/Mol-Kelvin    Cal/Mol-Kelvin
 Total                  181.846             62.576            132.701
 Electronic               0.000              0.000              0.000
 Translational            0.889              2.981             42.590
 Rotational               0.889              2.981             33.765
 Vibrational            180.068             56.614             56.346
 Vibration     1          0.593              1.985              6.269
 Vibration     2          0.593              1.985              6.146
 Vibration     3          0.595              1.980              5.088
 Vibration     4          0.596              1.976              4.682
 Vibration     5          0.596              1.976              4.679
 Vibration     6          0.598              1.969              4.191
 Vibration     7          0.632              1.857              2.253
 Vibration     8          0.640              1.833              2.088
 Vibration     9          0.640              1.832              2.084
 Vibration    10          0.661              1.767              1.749
 Vibration    11          0.669              1.744              1.653
 Vibration    12          0.669              1.743              1.651
 Vibration    13          0.772              1.455              0.936
 Vibration    14          0.772              1.454              0.936
 Vibration    15          0.775              1.448              0.925
 Vibration    16          0.779              1.437              0.908
 Vibration    17          0.791              1.406              0.860
 Vibration    18          0.791              1.405              0.859
 Vibration    19          0.862              1.234              0.641
 Vibration    20          0.863              1.234              0.640
 Vibration    21          0.874              1.208              0.612

                           ! Non-Optimized Parameters !
 Normal termination of Gaussian 16 at Mon Sep 18 05:43:30 2023.
