 Gaussian 16, Revision B.01,
 Gaussian 16:  EM64L-G16RevB.01 20-Dec-2017

 ---------------------------------------------------------
 # opt freq b3lyp/6-31+g(d) empiricaldispersion=gd3 volume
 ---------------------------------------------------------

 -------------------
 Title Card Required
 -------------------
 Symbolic Z-matrix:
 Charge =  0 Multiplicity = 1

 SCF Done:  E(RB3LYP) =  -441.716973937     A.U. after   13 cycles
 SCF Done:  E(RB3LYP) =  -441.716967067     A.U. after   10 cycles
 SCF Done:  E(RB3LYP) =  -441.716973141     A.U. after   10 cycles
 SCF Done:  E(RB3LYP) =  -441.716975083     A.U. after   10 cycles
 SCF Done:  E(RB3LYP) =  -441.716975598     A.U. after    9 cycles
 SCF Done:  E(RB3LYP) =  -441.716975614     A.U. after    8 cycles
 SCF Done:  E(RB3LYP) =  -441.716975760     A.U. after    9 cycles
 SCF Done:  E(RB3LYP) =  -441.716975810     A.U. after    8 cycles
 SCF Done:  E(RB3LYP) =  -441.716975826     A.U. after    7 cycles
 Optimization completed.
    -- Stationary point found.
 Normal termination of Gaussian 16 at Mon Sep 18 06:28:31 2023.

 ---------------------------------------------------------------------
 #N Geom=AllCheck Guess=TCheck SCRF=Check GenChk RB3LYP/6-31+G(d) Freq
 ---------------------------------------------------------------------

 Structure from the checkpoint file:  "molecule_11-volume.chk"
 -------------------
 Title Card Required
 -------------------
 Charge =  0 Multiplicity = 1

                         Standard orientation:
 ---------------------------------------------------------------------
 Center     Atomic      Atomic             Coordinates (Angstroms)
 Number     Number       Type             X           Y           Z
 ---------------------------------------------------------------------
      1          6           0       -1.410528   -0.906906   -0.111184
      2          6           0       -0.769491    0.467700    0.171377
      3          6           0        0.664116    0.596231   -0.423960
      4          7           0        1.371926    1.727982    0.209374
      5          6           0        1.503318   -0.670768   -0.170160
      6          8           0        2.240365   -0.621518    0.955915
      7          8           0        1.487438   -1.637767   -0.897352
      8          6           0       -1.653670    1.614093   -0.354535
      9          1           0       -0.772353   -1.694931    0.300933
     10          1           0       -1.432388   -1.077757   -1.196172
     11          1           0       -0.667461    0.573387    1.263255
     12          1           0        0.578414    0.694610   -1.514529
     13          1           0        0.746329    2.496736    0.432617
     14          1           0        2.103968    2.097346   -0.394239
     15          1           0        2.160941    0.309179    1.280964
     16          1           0       -1.866822    1.472066   -1.422078
     17          1           0       -1.188581    2.600410   -0.239116
     18          1           0       -2.608566    1.651868    0.177766
     19          6           0       -2.821087   -1.066007    0.471876
     20          1           0       -3.554837   -0.421864   -0.025284
     21          1           0       -3.164075   -2.100521    0.357261
     22          1           0       -2.836427   -0.828176    1.544017
 ---------------------------------------------------------------------

 SCF Done:  E(RB3LYP) =  -441.716975826     A.U. after    1 cycles

 The electronic state is 1-A.
 Alpha  occ. eigenvalues --  -19.19426 -19.14106 -14.36458 -10.31901 -10.24943
 Alpha  occ. eigenvalues --  -10.21841 -10.19863 -10.19087 -10.18423  -1.10191
 Alpha  occ. eigenvalues --   -1.02107  -0.92555  -0.82063  -0.74200  -0.71638
 Alpha  occ. eigenvalues --   -0.64689  -0.60319  -0.58920  -0.53560  -0.52119
 Alpha  occ. eigenvalues --   -0.49695  -0.46809  -0.45635  -0.43857  -0.43546
 Alpha  occ. eigenvalues --   -0.42571  -0.39989  -0.39619  -0.37950  -0.37024
 Alpha  occ. eigenvalues --   -0.34735  -0.33968  -0.33905  -0.31485  -0.30005
 Alpha  occ. eigenvalues --   -0.26816
 Alpha virt. eigenvalues --   -0.01617  -0.00359   0.00831   0.01663   0.02106
 Alpha virt. eigenvalues --    0.03798   0.04363   0.05051   0.05530   0.06302
 Alpha virt. eigenvalues --    0.07581   0.08359   0.08734   0.09111   0.09608

 Mulliken charges:
               1
     1  C   -0.035194
     2  C   -0.326268
     3  C    0.164099
     4  N   -0.970847
     5  C    0.389416
     6  O   -0.545787
     7  O   -0.425519
     8  C   -0.746065
     9  H    0.220969
    10  H    0.216931
    11  H    0.203981
    12  H    0.216319
    13  H    0.379724
    14  H    0.402114
    15  H    0.508187
    16  H    0.223416
    17  H    0.176989
    18  H    0.221153
    19  C   -0.886630
    20  H    0.201838
    21  H    0.207489
    22  H    0.203687
 Sum of Mulliken charges =   0.00000

 Dipole moment (field-independent basis, Debye):
    X=             -2.0513    Y=              4.8836    Z=              0.2867  Tot=              5.3047
 Quadrupole moment (field-independent basis, Debye-Ang):
   XX=            -60.0051   YY=            -58.2432   ZZ=            -58.4618
   XY=              8.8077   XZ=             -0.5990   YZ=             -2.6966

  Exact polarizability:  91.090   0.502  89.214   2.254   2.896  76.830
 Approx polarizability: 110.950  -0.727 121.073   5.258   9.806 119.247

                      1                      2                      3
                      A                      A                      A
 Frequencies --     51.9775                70.3290               101.9871
 Red. masses --      2.9345                 4.0336                 2.1625
 Frc consts  --      0.0047                 0.0118                 0.0133
 IR Inten    --      2.2401                 0.8480                 0.5942

                      4                      5                      6
                      A                      A                      A
 Frequencies --    167.4060               202.2064               227.9959
 Red. masses --      5.0907                 1.0630                 1.6146
 Frc consts  --      0.0841                 0.0256                 0.0495
 IR Inten    --      7.5015                 0.8001                 1.5784

                      7                      8                      9
                      A                      A                      A
 Frequencies --    284.3148               304.2900               326.5564
 Red. masses --      1.2594                 1.9773                 2.9884
 Frc consts  --      0.0600                 0.1079                 0.1878
 IR Inten    --     13.9031                11.9448                 5.5543

                     10                     11                     12
                      A                      A                      A
 Frequencies --    360.2885               370.5767               421.3267
 Red. masses --      2.2883                 3.4875                 3.1349
 Frc consts  --      0.1750                 0.2822                 0.3279
 IR Inten    --      1.0487                 4.6778                 1.5814

                     13                     14                     15
                      A                      A                      A
 Frequencies --    458.2606               551.6093               671.8795
 Red. masses --      2.6302                 4.1337                 4.6386
 Frc consts  --      0.3254                 0.7411                 1.2337
 IR Inten    --      0.7909                 2.6965                13.4552

                     16                     17                     18
                      A                      A                      A
 Frequencies --    729.6913               793.9107               830.7667
 Red. masses --      5.7407                 1.3784                 1.4706
 Frc consts  --      1.8009                 0.5119                 0.5980
 IR Inten    --     11.3569                 1.7097                46.9720

                     19                     20                     21
                      A                      A                      A
 Frequencies --    853.0001               854.3586               920.6843
 Red. masses --      1.9794                 1.4158                 1.9897
 Frc consts  --      0.8486                 0.6089                 0.9937
 IR Inten    --     32.0987                37.8960                27.3972

                     22                     23                     24
                      A                      A                      A
 Frequencies --    945.2100               983.4312              1018.3625
 Red. masses --      1.8910                 1.3838                 1.5664
 Frc consts  --      0.9954                 0.7885                 0.9571
 IR Inten    --    105.5429                 2.6565                 1.4870

                     25                     26                     27
                      A                      A                      A
 Frequencies --   1040.0337              1072.2956              1095.7215
 Red. masses --      2.4955                 3.3131                 1.5010
 Frc consts  --      1.5904                 2.2445                 1.0618
 IR Inten    --      6.4512                 8.1366                26.4295

                     28                     29                     30
                      A                      A                      A
 Frequencies --   1150.1740              1186.3324              1206.0666
 Red. masses --      2.1400                 1.7824                 2.4282
 Frc consts  --      1.6680                 1.4780                 2.0810
 IR Inten    --      1.3935                 1.6183                10.6450

                     31                     32                     33
                      A                      A                      A
 Frequencies --   1254.5348              1312.8749              1326.9583
 Red. masses --      1.6271                 1.2844                 1.3066
 Frc consts  --      1.5088                 1.3044                 1.3555
 IR Inten    --      3.8382                 4.7090                 6.3249

                     34                     35                     36
                      A                      A                      A
 Frequencies --   1340.9392              1374.9197              1391.0508
 Red. masses --      1.3248                 1.2354                 1.3371
 Frc consts  --      1.4035                 1.3760                 1.5244
 IR Inten    --     10.1807                 6.8878                 4.8061

                     37                     38                     39
                      A                      A                      A
 Frequencies --   1412.2154              1413.2225              1440.3962
 Red. masses --      1.4189                 1.5427                 1.2451
 Frc consts  --      1.6672                 1.8153                 1.5220
 IR Inten    --    166.4122               225.5425                 2.9391

                     40                     41                     42
                      A                      A                      A
 Frequencies --   1443.4600              1505.0112              1521.3653
 Red. masses --      1.2236                 1.0640                 1.0580
 Frc consts  --      1.5021                 1.4199                 1.4428
 IR Inten    --      5.9879                 0.0999                 5.0598

                     43                     44                     45
                      A                      A                      A
 Frequencies --   1522.8440              1528.3027              1545.0162
 Red. masses --      1.0435                 1.0581                 1.0474
 Frc consts  --      1.4257                 1.4561                 1.4730
 IR Inten    --      8.8932                14.1983                 2.1736

                     46                     47                     48
                      A                      A                      A
 Frequencies --   1695.7651              1843.1673              3003.3123
 Red. masses --      1.0888                 9.4283                 1.0823
 Frc consts  --      1.8447                18.8719                 5.7516
 IR Inten    --     41.5415               300.2731                 9.5039

                     49                     50                     51
                      A                      A                      A
 Frequencies --   3036.5036              3040.2626              3042.2993
 Red. masses --      1.0401                 1.0565                 1.0626
 Frc consts  --      5.6503                 5.7536                 5.7948
 IR Inten    --     27.3142                14.1240                21.6405

                     52                     53                     54
                      A                      A                      A
 Frequencies --   3048.5800              3091.5595              3096.7477
 Red. masses --      1.0704                 1.0952                 1.1010
 Frc consts  --      5.8610                 6.1676                 6.2208
 IR Inten    --     39.0644                 5.1705                35.5827

                     55                     56                     57
                      A                      A                      A
 Frequencies --   3103.8125              3116.8459              3128.9632
 Red. masses --      1.1009                 1.1005                 1.0980
 Frc consts  --      6.2487                 6.2989                 6.3335
 IR Inten    --     44.4465                49.5316                25.5375

                     58                     59                     60
                      A                      A                      A
 Frequencies --   3427.4943              3504.5330              3590.3127
 Red. masses --      1.0644                 1.0511                 1.0933
 Frc consts  --      7.3674                 7.6057                 8.3031
 IR Inten    --    206.7001                 0.6973                 8.2205

 - Thermochemistry -
 -------------------
 Temperature   298.150 Kelvin.  Pressure   1.00000 Atm.
 Atom     1 has atomic number  6 and mass  12.00000

 Molecular mass:   131.09463 amu.
 Principal axes and moments of inertia in atomic units:
                           1         2         3
     Eigenvalues --   847.815031557.917472067.73308
           X            0.99885   0.04779  -0.00347
           Y           -0.04786   0.99859  -0.02318
           Z            0.00236   0.02332   0.99973
 This molecule is an asymmetric top.
 Rotational symmetry number  1.
 Warning -- assumption of classical behavior for rotation
           may cause significant error
 Rotational temperatures (Kelvin)      0.10216     0.05560     0.04189
 Rotational constants (GHZ):           2.12870     1.15843     0.87281
 Zero-point vibrational energy     510532.2 (Joules/Mol)
                                  122.02012 (Kcal/Mol)
 Warning -- explicit consideration of  14 degrees of freedom as
           vibrations may cause significant error
 Vibrational temperatures:     74.78   101.19   146.74   240.86   290.93
          (Kelvin)            328.04   409.07   437.81   469.84   518.37
                              533.18   606.20   659.33   793.64   966.68
                             1049.86  1142.26  1195.29  1227.28  1229.23
                             1324.66  1359.95  1414.94  1465.20  1496.38
                             1542.79  1576.50  1654.84  1706.87  1735.26
                             1805.00  1888.93  1909.20  1929.31  1978.20
                             2001.41  2031.86  2033.31  2072.41  2076.82
                             2165.38  2188.91  2191.03  2198.89  2222.93
                             2439.83  2651.91  4321.10  4368.85  4374.26
                             4377.19  4386.23  4448.06  4455.53  4465.69
                             4484.45  4501.88  4931.40  5042.24  5165.66

 Zero-point correction=                           0.194451 (Hartree/Particle)
 Thermal correction to Energy=                    0.204919
 Thermal correction to Enthalpy=                  0.205863
 Thermal correction to Gibbs Free Energy=         0.158511
 Sum of electronic and zero-point Energies=           -441.522524
 Sum of electronic and thermal Energies=              -441.512057
 Sum of electronic and thermal Enthalpies=            -441.511113
 Sum of electronic and thermal Free Energies=         -441.558465

                     E (Thermal)             CV                S
                      KCal/Mol        Cal/Mol-Kelvin    Cal/Mol-Kelvin
 Total                  128.588             38.242             99.661
 Electronic               0.000              0.000              0.000
 Translational            0.889              2.981             40.525
 Rotational               0.889              2.981             29.392
 Vibrational            126.811             32.281             29.744
 Vibration     1          0.596              1.977              4.741
 Vibration     2          0.598              1.968              4.144
 Vibration     3          0.604              1.948              3.416
 Vibration     4          0.624              1.883              2.464
 Vibration     5          0.639              1.837              2.113
 Vibration     6          0.651              1.798              1.895
 Vibration     7          0.683              1.703              1.508
 Vibration     8          0.695              1.666              1.393
 Vibration     9          0.710              1.622              1.277
 Vibration    10          0.735              1.554              1.121
 Vibration    11          0.743              1.533              1.077
 Vibration    12          0.784              1.424              0.887
 Vibration    13          0.816              1.343              0.771
 Vibration    14          0.907              1.136              0.541

 Optimization completed.
    -- Stationary point found.
 Normal termination of Gaussian 16 at Mon Sep 18 06:30:02 2023.
