 Gaussian 16, Revision B.01,
 Gaussian 16:  EM64L-G16RevB.01 20-Dec-2017

 ---------------------------------------------------------
 # opt freq b3lyp/6-31+g(d) empiricaldispersion=gd3 volume
 ---------------------------------------------------------

 -------------------
 Title Card Required
 -------------------
 Symbolic Z-matrix:
 Charge =  0 Multiplicity = 1

 SCF Done:  E(RB3LYP) =  -441.719052643     A.U. after   13 cycles
 SCF Done:  E(RB3LYP) =  -441.719048995     A.U. after   10 cycles
 SCF Done:  E(RB3LYP) =  -441.719053124     A.U. after   10 cycles
 SCF Done:  E(RB3LYP) =  -441.719052117     A.U. after   10 cycles
 SCF Done:  E(RB3LYP) =  -441.719053753     A.U. after    9 cycles
 SCF Done:  E(RB3LYP) =  -441.719053821     A.U. after    8 cycles
 SCF Done:  E(RB3LYP) =  -441.719053782     A.U. after    9 cycles
 SCF Done:  E(RB3LYP) =  -441.719054025     A.U. after    8 cycles
 SCF Done:  E(RB3LYP) =  -441.719054133     A.U. after    9 cycles
 SCF Done:  E(RB3LYP) =  -441.719054142     A.U. after    8 cycles
 Optimization completed.
    -- Stationary point found.
 Normal termination of Gaussian 16 at Mon Sep 18 05:54:38 2023.

 ---------------------------------------------------------------------
 #N Geom=AllCheck Guess=TCheck SCRF=Check GenChk RB3LYP/6-31+G(d) Freq
 ---------------------------------------------------------------------

 Structure from the checkpoint file:  "molecule_12-volume.chk"
 -------------------
 Title Card Required
 -------------------
 Charge =  0 Multiplicity = 1

                         Standard orientation:
 ---------------------------------------------------------------------
 Center     Atomic      Atomic             Coordinates (Angstroms)
 Number     Number       Type             X           Y           Z
 ---------------------------------------------------------------------
      1          6           0       -0.493586   -0.450180    0.345562
      2          6           0        0.648142    0.315502   -0.355968
      3          7           0        0.797365    1.701393    0.137303
      4          6           0        1.979946   -0.440131   -0.134718
      5          8           0        2.873453    0.220258    0.616588
      6          8           0        2.183669   -1.542693   -0.592539
      7          1           0       -0.522163   -0.147099    1.404443
      8          1           0        0.470459    0.290778   -1.439302
      9          1           0       -0.008974    2.012611    0.669026
     10          1           0        0.947119    2.366233   -0.617089
     11          1           0        2.437151    1.086640    0.827448
     12          6           0       -1.891154   -0.291924   -0.287133
     13          1           0       -1.822371   -0.673965   -1.317347
     14          6           0       -2.382701    1.161963   -0.358928
     15          1           0       -1.733569    1.787898   -0.981981
     16          1           0       -3.390676    1.207694   -0.788396
     17          1           0       -2.435096    1.610259    0.643940
     18          6           0       -2.902959   -1.162938    0.473929
     19          1           0       -3.892104   -1.121563    0.002206
     20          1           0       -2.586421   -2.212434    0.502860
     21          1           0       -3.013016   -0.816824    1.510707
     22          1           0       -0.234991   -1.514260    0.333501
 ---------------------------------------------------------------------

 SCF Done:  E(RB3LYP) =  -441.719054142     A.U. after    1 cycles

 The electronic state is 1-A.
 Alpha  occ. eigenvalues --  -19.19193 -19.13763 -14.36620 -10.31655 -10.25208
 Alpha  occ. eigenvalues --  -10.21131 -10.20745 -10.19686 -10.18940  -1.10010
 Alpha  occ. eigenvalues --   -1.01845  -0.92588  -0.82525  -0.75358  -0.70174
 Alpha  occ. eigenvalues --   -0.66642  -0.59847  -0.58662  -0.53043  -0.52855
 Alpha  occ. eigenvalues --   -0.50323  -0.47485  -0.45590  -0.43851  -0.43564
 Alpha  occ. eigenvalues --   -0.42877  -0.40237  -0.39295  -0.38436  -0.37736
 Alpha  occ. eigenvalues --   -0.34713  -0.34498  -0.34173  -0.31324  -0.30782
 Alpha  occ. eigenvalues --   -0.26305
 Alpha virt. eigenvalues --   -0.01728  -0.00152   0.00627   0.01430   0.02147
 Alpha virt. eigenvalues --    0.03783   0.04373   0.04478   0.04936   0.05997
 Alpha virt. eigenvalues --    0.07272   0.07932   0.08231   0.08846   0.09578

 Mulliken charges:
               1
     1  C   -0.689874
     2  C    0.254118
     3  N   -1.037522
     4  C    0.367692
     5  O   -0.555531
     6  O   -0.446606
     7  H    0.210714
     8  H    0.219192
     9  H    0.408574
    10  H    0.408366
    11  H    0.513785
    12  C    0.121605
    13  H    0.194338
    14  C   -0.657725
    15  H    0.207142
    16  H    0.209805
    17  H    0.202506
    18  C   -0.793933
    19  H    0.204606
    20  H    0.208455
    21  H    0.208435
    22  H    0.241860
 Sum of Mulliken charges =   0.00000

 Dipole moment (field-independent basis, Debye):
    X=             -4.2852    Y=              4.0068    Z=             -0.0212  Tot=              5.8667
 Quadrupole moment (field-independent basis, Debye-Ang):
   XX=            -69.0309   YY=            -57.5468   ZZ=            -56.4506
   XY=              7.6485   XZ=             -0.1488   YZ=             -2.6045

  Exact polarizability:  97.019  -0.276  88.246   1.690   2.800  73.389
 Approx polarizability: 114.846  -1.012 124.490   2.979   9.656 111.032

                      1                      2                      3
                      A                      A                      A
 Frequencies --     34.4019                66.6282               103.9830
 Red. masses --      3.8066                 3.5342                 2.9607
 Frc consts  --      0.0027                 0.0092                 0.0189
 IR Inten    --      0.6567                 2.6590                 4.9719

                      4                      5                      6
                      A                      A                      A
 Frequencies --    178.3535               233.9085               247.9541
 Red. masses --      3.2115                 3.0191                 1.0479
 Frc consts  --      0.0602                 0.0973                 0.0380
 IR Inten    --      3.8093                 0.3154                 0.3587

                      7                      8                      9
                      A                      A                      A
 Frequencies --    270.5885               322.8664               329.9690
 Red. masses --      1.2399                 1.3845                 2.5307
 Frc consts  --      0.0535                 0.0850                 0.1623
 IR Inten    --      9.5506                 2.0302                 1.3837

                     10                     11                     12
                      A                      A                      A
 Frequencies --    359.3403               412.4834               437.8008
 Red. masses --      3.3299                 2.2601                 1.8893
 Frc consts  --      0.2533                 0.2266                 0.2134
 IR Inten    --     18.6036                 1.3271                 0.7732

                     13                     14                     15
                      A                      A                      A
 Frequencies --    455.5616               550.8632               656.0374
 Red. masses --      3.0397                 4.2073                 4.7768
 Frc consts  --      0.3717                 0.7522                 1.2113
 IR Inten    --      1.1655                 2.2120                 5.4400

                     16                     17                     18
                      A                      A                      A
 Frequencies --    720.8828               814.3751               858.3549
 Red. masses --      5.4902                 2.9646                 1.7672
 Frc consts  --      1.6810                 1.1584                 0.7671
 IR Inten    --     10.5600                10.1462                71.6624

                     19                     20                     21
                      A                      A                      A
 Frequencies --    882.5855               902.6057               934.2557
 Red. masses --      2.1186                 1.1352                 2.0409
 Frc consts  --      0.9723                 0.5449                 1.0496
 IR Inten    --      1.6696                77.9551                32.9617

                     22                     23                     24
                      A                      A                      A
 Frequencies --    947.6137               952.8925               979.0397
 Red. masses --      1.4835                 1.5335                 1.5170
 Frc consts  --      0.7849                 0.8204                 0.8567
 IR Inten    --     51.6276                32.7197                 1.9758

                     25                     26                     27
                      A                      A                      A
 Frequencies --   1009.7887              1076.0554              1125.2928
 Red. masses --      1.8450                 2.0079                 1.5604
 Frc consts  --      1.1084                 1.3698                 1.1642
 IR Inten    --      2.2100                10.2680                 4.8297

                     28                     29                     30
                      A                      A                      A
 Frequencies --   1148.3036              1204.3445              1213.1004
 Red. masses --      2.3205                 1.8816                 2.3803
 Frc consts  --      1.8028                 1.6079                 2.0639
 IR Inten    --      7.2054                14.6061                11.3275

                     31                     32                     33
                      A                      A                      A
 Frequencies --   1240.5820              1294.8340              1315.0845
 Red. masses --      1.7395                 1.3228                 1.2485
 Frc consts  --      1.5774                 1.3067                 1.2721
 IR Inten    --      7.8484                 3.7817                 6.5628

                     34                     35                     36
                      A                      A                      A
 Frequencies --   1360.8820              1374.9447              1395.0030
 Red. masses --      1.3185                 1.3377                 1.3135
 Frc consts  --      1.4387                 1.4900                 1.5060
 IR Inten    --      5.5853                20.9004                 2.4149

                     37                     38                     39
                      A                      A                      A
 Frequencies --   1409.0464              1427.6318              1434.1221
 Red. masses --      1.4185                 1.2729                 1.5539
 Frc consts  --      1.6593                 1.5286                 1.8830
 IR Inten    --      6.2856                16.9194               429.1221

                     40                     41                     42
                      A                      A                      A
 Frequencies --   1448.3408              1506.2500              1516.7305
 Red. masses --      1.2245                 1.0747                 1.0463
 Frc consts  --      1.5134                 1.4366                 1.4181
 IR Inten    --      7.3150                 1.9814                 4.5149

                     43                     44                     45
                      A                      A                      A
 Frequencies --   1522.1791              1531.5881              1541.6908
 Red. masses --      1.0558                 1.0537                 1.0466
 Frc consts  --      1.4414                 1.4563                 1.4656
 IR Inten    --      6.4733                 6.8317                13.6792

                     46                     47                     48
                      A                      A                      A
 Frequencies --   1693.6204              1840.4221              3004.4316
 Red. masses --      1.0896                 9.4249                 1.0774
 Frc consts  --      1.8415                18.8088                 5.7300
 IR Inten    --     33.0691               334.0868                 1.0229

                     49                     50                     51
                      A                      A                      A
 Frequencies --   3015.7654              3024.0240              3033.0792
 Red. masses --      1.0731                 1.0418                 1.0383
 Frc consts  --      5.7502                 5.6131                 5.6279
 IR Inten    --     19.1670                32.6862                33.9724

                     52                     53                     54
                      A                      A                      A
 Frequencies --   3045.8769              3088.2316              3094.8911
 Red. masses --      1.0839                 1.0968                 1.0976
 Frc consts  --      5.9246                 6.1630                 6.1944
 IR Inten    --     27.4997                15.9005                33.6912

                     55                     56                     57
                      A                      A                      A
 Frequencies --   3101.1660              3104.9531              3107.5202
 Red. masses --      1.0956                 1.1017                 1.1011
 Frc consts  --      6.2080                 6.2578                 6.2649
 IR Inten    --     37.5167                32.4333                47.7324

                     58                     59                     60
                      A                      A                      A
 Frequencies --   3359.3409              3523.1802              3612.7343
 Red. masses --      1.0645                 1.0511                 1.0940
 Frc consts  --      7.0779                 7.6873                 8.4129
 IR Inten    --    285.1189                 1.5274                11.6580

 - Thermochemistry -
 -------------------
 Temperature   298.150 Kelvin.  Pressure   1.00000 Atm.
 Atom     1 has atomic number  6 and mass  12.00000

 Molecular mass:   131.09463 amu.
 Principal axes and moments of inertia in atomic units:
                           1         2         3
     Eigenvalues --   638.812812062.372652470.58934
           X            0.99982   0.01891  -0.00200
           Y           -0.01896   0.99937  -0.03005
           Z            0.00143   0.03009   0.99955
 This molecule is an asymmetric top.
 Rotational symmetry number  1.
 Warning -- assumption of classical behavior for rotation
           may cause significant error
 Rotational temperatures (Kelvin)      0.13559     0.04200     0.03506
 Rotational constants (GHZ):           2.82515     0.87508     0.73049
 Zero-point vibrational energy     510795.7 (Joules/Mol)
                                  122.08311 (Kcal/Mol)
 Warning -- explicit consideration of  14 degrees of freedom as
           vibrations may cause significant error
 Vibrational temperatures:     49.50    95.86   149.61   256.61   336.54
          (Kelvin)            356.75   389.32   464.53   474.75   517.01
                              593.47   629.90   655.45   792.57   943.89
                             1037.19  1171.70  1234.98  1269.84  1298.65
                             1344.19  1363.40  1371.00  1408.62  1452.86
                             1548.20  1619.05  1652.15  1732.78  1745.38
                             1784.92  1862.98  1892.11  1958.01  1978.24
                             2007.10  2027.30  2054.04  2063.38  2083.84
                             2167.16  2182.24  2190.08  2203.61  2218.15
                             2436.74  2647.96  4322.71  4339.01  4350.90
                             4363.92  4382.34  4443.28  4452.86  4461.89
                             4467.33  4471.03  4833.34  5069.07  5197.92

 Zero-point correction=                           0.194552 (Hartree/Particle)
 Thermal correction to Energy=                    0.204892
 Thermal correction to Enthalpy=                  0.205837
 Thermal correction to Gibbs Free Energy=         0.158358
 Sum of electronic and zero-point Energies=           -441.524502
 Sum of electronic and thermal Energies=              -441.514162
 Sum of electronic and thermal Enthalpies=            -441.513218
 Sum of electronic and thermal Free Energies=         -441.560696

                     E (Thermal)             CV                S
                      KCal/Mol        Cal/Mol-Kelvin    Cal/Mol-Kelvin
 Total                  128.572             37.939             99.928
 Electronic               0.000              0.000              0.000
 Translational            0.889              2.981             40.525
 Rotational               0.889              2.981             29.566
 Vibrational            126.794             31.977             29.836
 Vibration     1          0.594              1.983              5.558
 Vibration     2          0.598              1.970              4.251
 Vibration     3          0.605              1.946              3.378
 Vibration     4          0.629              1.869              2.346
 Vibration     5          0.654              1.789              1.849
 Vibration     6          0.662              1.766              1.745
 Vibration     7          0.674              1.727              1.592
 Vibration     8          0.708              1.630              1.296
 Vibration     9          0.713              1.616              1.260
 Vibration    10          0.734              1.556              1.125
 Vibration    11          0.776              1.443              0.918
 Vibration    12          0.798              1.388              0.834
 Vibration    13          0.814              1.349              0.779
 Vibration    14          0.906              1.138              0.542

 Optimization completed.
    -- Stationary point found.
 Normal termination of Gaussian 16 at Mon Sep 18 05:56:15 2023.
