 Gaussian 16, Revision B.01,
 Gaussian 16:  EM64L-G16RevB.01 20-Dec-2017

 ---------------------------------------------------------
 # opt freq b3lyp/6-31+g(d) empiricaldispersion=gd3 volume
 ---------------------------------------------------------

 -------------------
 Title Card Required
 -------------------
 Symbolic Z-matrix:
 Charge =  0 Multiplicity = 1

 SCF Done:  E(RB3LYP) =  -436.868708553     A.U. after   14 cycles
 SCF Done:  E(RB3LYP) =  -436.868708703     A.U. after    9 cycles
 Optimization completed.
    -- Stationary point found.
 Normal termination of Gaussian 16 at Mon Sep 18 05:58:56 2023.

 ---------------------------------------------------------------------
 #N Geom=AllCheck Guess=TCheck SCRF=Check GenChk RB3LYP/6-31+G(d) Freq
 ---------------------------------------------------------------------

 Structure from the checkpoint file:  "molecule_15-volume.chk"
 -------------------
 Title Card Required
 -------------------
 Charge =  0 Multiplicity = 1

                         Standard orientation:
 ---------------------------------------------------------------------
 Center     Atomic      Atomic             Coordinates (Angstroms)
 Number     Number       Type             X           Y           Z
 ---------------------------------------------------------------------
      1          6           0       -0.456810    1.162436   -0.258910
      2          6           0       -1.853407    1.171301   -0.256502
      3          6           0       -2.527626   -0.017818    0.015513
      4          6           0       -1.771467   -1.170757    0.261623
      5          6           0        0.203716   -0.048082   -0.006715
      6          1           0        0.103367    2.065087   -0.488972
      7          1           0       -2.399095    2.087087   -0.466962
      8          1           0       -3.612728   -0.060761    0.032891
      9          1           0       -2.262776   -2.117123    0.478649
     10          6           0        1.714106   -0.129336   -0.057041
     11          8           0        2.323411   -1.003284   -0.615133
     12          8           0        2.377452    0.899492    0.550170
     13          1           0        1.765711    1.444055    1.073613
     14          7           0       -0.436066   -1.199211    0.243240
 ---------------------------------------------------------------------

 SCF Done:  E(RB3LYP) =  -436.868708703     A.U. after    1 cycles

 The electronic state is 1-A.
 Alpha  occ. eigenvalues --  -19.21746 -19.15643 -14.36585 -10.33751 -10.26740
 Alpha  occ. eigenvalues --  -10.25487 -10.24376 -10.23938 -10.23378  -1.11716
 Alpha  occ. eigenvalues --   -1.03757  -0.97590  -0.83799  -0.80384  -0.68734
 Alpha  occ. eigenvalues --   -0.66488  -0.63143  -0.58234  -0.52700  -0.51761
 Alpha  occ. eigenvalues --   -0.48046  -0.46810  -0.45510  -0.43543  -0.42284
 Alpha  occ. eigenvalues --   -0.41989  -0.39468  -0.33590  -0.32096  -0.30269
 Alpha  occ. eigenvalues --   -0.29122  -0.28064
 Alpha virt. eigenvalues --   -0.07246  -0.05815  -0.01724   0.00167   0.00936
 Alpha virt. eigenvalues --    0.01681   0.03141   0.04199   0.04372   0.05669
 Alpha virt. eigenvalues --    0.06217   0.07746   0.08610   0.08711   0.10054

 Mulliken charges:
               1
     1  C    0.094423
     2  C   -0.381934
     3  C    0.059762
     4  C   -0.205102
     5  C   -0.215517
     6  H    0.206248
     7  H    0.199320
     8  H    0.197122
     9  H    0.192104
    10  C    0.467235
    11  O   -0.400724
    12  O   -0.555453
    13  H    0.462424
    14  N   -0.119907
 Sum of Mulliken charges =   0.00000

 Dipole moment (field-independent basis, Debye):
    X=             -5.2451    Y=              3.9053    Z=              1.1939  Tot=              6.6474
 Quadrupole moment (field-independent basis, Debye-Ang):
   XX=            -55.1143   YY=            -49.8801   ZZ=            -52.3430
   XY=              4.4594   XZ=              2.8073   YZ=             -0.7536

  Exact polarizability: 104.977  -0.685  85.791  -1.600  -1.374  50.776
 Approx polarizability: 155.744  -4.574 147.303  -4.083  -2.225  76.476

                      1                      2                      3
                      A                      A                      A
 Frequencies --     59.2371               133.5246               209.8742
 Red. masses --      6.4641                 5.4292                 6.4826
 Frc consts  --      0.0134                 0.0570                 0.1682
 IR Inten    --      1.8452                 2.8488                 3.4207

                      4                      5                      6
                      A                      A                      A
 Frequencies --    371.1598               375.2744               412.4364
 Red. masses --      7.3466                 4.5092                 3.6094
 Frc consts  --      0.5963                 0.3742                 0.3617
 IR Inten    --      0.3708                 8.4730                 6.5574

                      7                      8                      9
                      A                      A                      A
 Frequencies --    510.8640               547.8251               628.0620
 Red. masses --      1.1429                 3.6242                 7.1578
 Frc consts  --      0.1757                 0.6408                 1.6635
 IR Inten    --    104.0585                10.7708                 4.0274

                     10                     11                     12
                      A                      A                      A
 Frequencies --    664.3073               722.8577               761.3157
 Red. masses --      7.5085                 5.1817                 1.5503
 Frc consts  --      1.9523                 1.5952                 0.5294
 IR Inten    --     11.6133                22.7176                33.2371

                     13                     14                     15
                      A                      A                      A
 Frequencies --    791.8350               822.5896               915.5524
 Red. masses --      6.6797                 3.4084                 1.2981
 Frc consts  --      2.4676                 1.3588                 0.6411
 IR Inten    --      8.1274                11.7469                 0.5251

                     16                     17                     18
                      A                      A                      A
 Frequencies --    985.8424              1008.6346              1016.5975
 Red. masses --      1.4133                 6.5577                 1.3459
 Frc consts  --      0.8093                 3.9307                 0.8195
 IR Inten    --      0.4399                 5.9107                 0.1780

                     19                     20                     21
                      A                      A                      A
 Frequencies --   1067.8192              1101.7033              1135.9809
 Red. masses --      2.9369                 2.4876                 1.8175
 Frc consts  --      1.9730                 1.7789                 1.3819
 IR Inten    --      8.1837                44.3754                15.7632

                     22                     23                     24
                      A                      A                      A
 Frequencies --   1192.6635              1216.4341              1303.8618
 Red. masses --      1.1673                 1.6409                 2.6465
 Frc consts  --      0.9783                 1.4306                 2.6509
 IR Inten    --      0.7864                55.7491               216.2362

                     25                     26                     27
                      A                      A                      A
 Frequencies --   1317.7386              1341.6996              1466.4680
 Red. masses --      3.7183                 1.9058                 2.0157
 Frc consts  --      3.8042                 2.0213                 2.5540
 IR Inten    --     44.5380               158.2330                 9.9805

                     28                     29                     30
                      A                      A                      A
 Frequencies --   1511.9180              1622.6813              1632.0869
 Red. masses --      2.2338                 5.3071                 5.4367
 Frc consts  --      3.0085                 8.2332                 8.5324
 IR Inten    --      3.3642                24.5618                 8.1883

                     31                     32                     33
                      A                      A                      A
 Frequencies --   1857.3993              3180.9307              3189.2397
 Red. masses --     11.0682                 1.0891                 1.0890
 Frc consts  --     22.4978                 6.4926                 6.5263
 IR Inten    --    293.8825                12.9378                 1.7239

                     34                     35                     36
                      A                      A                      A
 Frequencies --   3202.8747              3216.2990              3724.2608
 Red. masses --      1.0929                 1.0979                 1.0661
 Frc consts  --      6.6053                 6.6914                 8.7120
 IR Inten    --     13.2434                11.9516                32.9831

 - Thermochemistry -
 -------------------
 Temperature   298.150 Kelvin.  Pressure   1.00000 Atm.
 Atom     1 has atomic number  6 and mass  12.00000

 Molecular mass:   123.03203 amu.
 Principal axes and moments of inertia in atomic units:
                           1         2         3
     Eigenvalues --   463.365341486.263561835.33145
           X            0.99995   0.00905   0.00436
           Y           -0.00898   0.99986  -0.01442
           Z           -0.00449   0.01438   0.99989
 This molecule is an asymmetric top.
 Rotational symmetry number  1.
 Warning -- assumption of classical behavior for rotation
           may cause significant error
 Rotational temperatures (Kelvin)      0.18692     0.05828     0.04719
 Rotational constants (GHZ):           3.89486     1.21428     0.98333
 Zero-point vibrational energy     270474.8 (Joules/Mol)
                                   64.64502 (Kcal/Mol)
 Warning -- explicit consideration of   8 degrees of freedom as
           vibrations may cause significant error
 Vibrational temperatures:     85.23   192.11   301.96   534.02   539.94
          (Kelvin)            593.40   735.02   788.20   903.64   955.79
                             1040.03  1095.36  1139.27  1183.52  1317.28
                             1418.41  1451.20  1462.66  1536.35  1585.11
                             1634.42  1715.98  1750.18  1875.97  1895.93
                             1930.41  2109.92  2175.31  2334.68  2348.21
                             2672.38  4576.65  4588.60  4608.22  4627.54
                             5358.38

 Zero-point correction=                           0.103018 (Hartree/Particle)
 Thermal correction to Energy=                    0.110198
 Thermal correction to Enthalpy=                  0.111142
 Thermal correction to Gibbs Free Energy=         0.070714
 Sum of electronic and zero-point Energies=           -436.765690
 Sum of electronic and thermal Energies=              -436.758511
 Sum of electronic and thermal Enthalpies=            -436.757567
 Sum of electronic and thermal Free Energies=         -436.797995

                     E (Thermal)             CV                S
                      KCal/Mol        Cal/Mol-Kelvin    Cal/Mol-Kelvin
 Total                   69.150             26.730             85.088
 Electronic               0.000              0.000              0.000
 Translational            0.889              2.981             40.336
 Rotational               0.889              2.981             28.626
 Vibrational             67.373             20.768             16.126
 Vibration     1          0.597              1.974              4.482
 Vibration     2          0.613              1.920              2.895
 Vibration     3          0.642              1.826              2.045
 Vibration     4          0.743              1.531              1.075
 Vibration     5          0.746              1.523              1.058
 Vibration     6          0.776              1.443              0.918
 Vibration     7          0.866              1.226              0.632
 Vibration     8          0.903              1.144              0.549

 Optimization completed.
    -- Stationary point found.
 Normal termination of Gaussian 16 at Mon Sep 18 05:59:46 2023.
