 Gaussian 16, Revision B.01,
 Gaussian 16:  EM64L-G16RevB.01 20-Dec-2017

 ---------------------------------------------------------
 # opt freq b3lyp/6-31+g(d) empiricaldispersion=gd3 volume
 ---------------------------------------------------------

 -------------------
 Title Card Required
 -------------------
 Symbolic Z-matrix:
 Charge =  0 Multiplicity = 1

 SCF Done:  E(RB3LYP) =  -345.815904771     A.U. after   12 cycles
 SCF Done:  E(RB3LYP) =  -345.815904587     A.U. after    8 cycles
 SCF Done:  E(RB3LYP) =  -345.815904430     A.U. after    9 cycles
 SCF Done:  E(RB3LYP) =  -345.815905390     A.U. after    8 cycles
 Optimization completed.
    -- Stationary point found.
 Normal termination of Gaussian 16 at Mon Sep 18 05:49:14 2023.

 ---------------------------------------------------------------------
 #N Geom=AllCheck Guess=TCheck SCRF=Check GenChk RB3LYP/6-31+G(d) Freq
 ---------------------------------------------------------------------

 Structure from the checkpoint file:  "molecule_7-volume.chk"
 -------------------
 Title Card Required
 -------------------
 Charge =  0 Multiplicity = 1

                         Standard orientation:
 ---------------------------------------------------------------------
 Center     Atomic      Atomic             Coordinates (Angstroms)
 Number     Number       Type             X           Y           Z
 ---------------------------------------------------------------------
      1          6           0       -0.671507    1.067944    1.666035
      2          6           0        0.152718   -0.151075    1.286983
      3          6           0        0.989060   -0.102001    0.000000
      4          6           0        0.152718   -0.151075   -1.286983
      5          6           0       -0.671507    1.067944   -1.666035
      6          8           0        0.152718   -1.150813   -1.978862
      7          8           0        0.152718   -1.150813    1.978862
      8          1           0       -0.220268    2.003994    1.321502
      9          1           0       -0.806242    1.088351    2.750425
     10          1           0       -1.664966    0.987338    1.206795
     11          1           0        1.573795    0.828187    0.000000
     12          1           0        1.656783   -0.964969    0.000000
     13          1           0       -0.220268    2.003994   -1.321502
     14          1           0       -1.664966    0.987338   -1.206795
     15          1           0       -0.806242    1.088351   -2.750425
 ---------------------------------------------------------------------

 SCF Done:  E(RB3LYP) =  -345.815905390     A.U. after    1 cycles

 The electronic state is 1-A'.
 Alpha  occ. eigenvalues --  -19.16717 -19.16717 -10.30619 -10.30618 -10.21899
 Alpha  occ. eigenvalues --  -10.21340 -10.21339  -1.06760  -1.06319  -0.80927
 Alpha  occ. eigenvalues --   -0.76037  -0.73683  -0.58117  -0.54379  -0.49953
 Alpha  occ. eigenvalues --   -0.48701  -0.48279  -0.45294  -0.45095  -0.44600
 Alpha  occ. eigenvalues --   -0.42412  -0.40770  -0.39210  -0.37764  -0.37167
 Alpha  occ. eigenvalues --   -0.28173  -0.26378
 Alpha virt. eigenvalues --   -0.05965  -0.02889  -0.01270   0.01961   0.02023
 Alpha virt. eigenvalues --    0.03295   0.04956   0.05052   0.05766   0.06840
 Alpha virt. eigenvalues --    0.06875   0.09012   0.09252   0.09660   0.10598

 Mulliken charges:
               1
     1  C   -0.739341
     2  C    0.516940
     3  C   -0.659859
     4  C    0.516940
     5  C   -0.739341
     6  O   -0.380310
     7  O   -0.380310
     8  H    0.213851
     9  H    0.243882
    10  H    0.234048
    11  H    0.224299
    12  H    0.257419
    13  H    0.213851
    14  H    0.234048
    15  H    0.243882
 Sum of Mulliken charges =   0.00000

 Dipole moment (field-independent basis, Debye):
    X=             -0.3315    Y=              4.8801    Z=              0.0000  Tot=              4.8913
 Quadrupole moment (field-independent basis, Debye-Ang):
   XX=            -39.8461   YY=            -46.8682   ZZ=            -50.3531
   XY=              0.1324   XZ=              0.0000   YZ=              0.0000

  Exact polarizability:  53.454  -6.093  66.280   0.000   0.000  74.447
 Approx polarizability:  73.412  -4.170  99.302   0.000   0.000  98.558

 ******    2 imaginary frequencies (negative Signs) ******

                      1                      2                      3
                     A"                     A"                     A'
 Frequencies --    -71.6636               -18.2712                70.3188
 Red. masses --      1.0350                 4.0172                 4.4038
 Frc consts  --      0.0031                 0.0008                 0.0128
 IR Inten    --      0.2356                 2.0426                 3.5155

                      4                      5                      6
                     A'                     A'                     A"
 Frequencies --    141.0837               207.9568               323.9530
 Red. masses --      1.5195                 1.8432                 3.2351
 Frc consts  --      0.0178                 0.0470                 0.2000
 IR Inten    --      0.9102                 1.0584                 4.1821

                      7                      8                      9
                     A'                     A'                     A"
 Frequencies --    446.1997               476.8472               501.4579
 Red. masses --      2.1553                 3.3049                 2.8559
 Frc consts  --      0.2528                 0.4428                 0.4231
 IR Inten    --      5.2648                 6.0704                 0.4885

                     10                     11                     12
                     A"                     A'                     A'
 Frequencies --    551.4241               622.9099               750.0852
 Red. masses --      4.0250                 2.4969                 3.1483
 Frc consts  --      0.7211                 0.5708                 1.0436
 IR Inten    --     20.4532                 5.5793                 1.0681

                     13                     14                     15
                     A"                     A'                     A"
 Frequencies --    825.1870               890.5427               955.2790
 Red. masses --      3.4222                 1.6703                 1.8768
 Frc consts  --      1.3730                 0.7805                 1.0091
 IR Inten    --      5.4827                 2.8597                40.7927

                     16                     17                     18
                     A"                     A'                     A'
 Frequencies --    986.5894              1069.2664              1086.6288
 Red. masses --      1.3707                 1.6857                 2.0595
 Frc consts  --      0.7861                 1.1355                 1.4328
 IR Inten    --      0.0497                 0.9797                 0.4638

                     19                     20                     21
                     A"                     A"                     A'
 Frequencies --   1149.5505              1236.1116              1240.1880
 Red. masses --      1.6502                 1.7914                 4.0198
 Frc consts  --      1.2848                 1.6127                 3.6428
 IR Inten    --     32.4540               177.2924                88.3212

                     22                     23                     24
                     A"                     A"                     A'
 Frequencies --   1300.8301              1407.2003              1415.7857
 Red. masses --      1.3095                 1.2560                 1.2582
 Frc consts  --      1.3055                 1.4653                 1.4859
 IR Inten    --      5.4704                11.1516                59.1628

                     25                     26                     27
                     A"                     A'                     A"
 Frequencies --   1477.5444              1482.8965              1494.9286
 Red. masses --      1.0482                 1.0916                 1.0609
 Frc consts  --      1.3483                 1.4143                 1.3969
 IR Inten    --     22.6851                 2.5667                 2.7612

                     28                     29                     30
                     A'                     A'                     A"
 Frequencies --   1501.6265              1512.9351              1780.5778
 Red. masses --      1.0495                 1.0583                 9.5626
 Frc consts  --      1.3943                 1.4272                17.8628
 IR Inten    --      6.3768                33.2960               202.3898

                     31                     32                     33
                     A'                     A'                     A"
 Frequencies --   1805.4660              3046.6569              3049.7763
 Red. masses --     11.2488                 1.0635                 1.0389
 Frc consts  --     21.6041                 5.8162                 5.6935
 IR Inten    --    236.4175                 3.0838                 1.1107

                     34                     35                     36
                     A'                     A"                     A'
 Frequencies --   3057.3539              3114.9292              3120.9113
 Red. masses --      1.0396                 1.0969                 1.0976
 Frc consts  --      5.7254                 6.2704                 6.2986
 IR Inten    --      7.7498                 0.7210                20.3978

                     37                     38                     39
                     A"                     A'                     A'
 Frequencies --   3154.7286              3155.5033              3157.6982
 Red. masses --      1.1038                 1.1007                 1.1011
 Frc consts  --      6.4726                 6.4575                 6.4686
 IR Inten    --     13.3869                 1.9639                 4.4767

 - Thermochemistry -
 -------------------
 Temperature   298.150 Kelvin.  Pressure   1.00000 Atm.
 Atom     1 has atomic number  6 and mass  12.00000

 Molecular mass:   100.05243 amu.
 Principal axes and moments of inertia in atomic units:
                           1         2         3
     Eigenvalues --   428.30047 979.939621257.75084
           X            0.00000  -0.43924   0.89837
           Y            0.00000   0.89837   0.43924
           Z            1.00000   0.00000   0.00000
 This molecule is an asymmetric top.
 Rotational symmetry number  1.
 Rotational temperatures (Kelvin)      0.20223     0.08839     0.06886
 Rotational constants (GHZ):           4.21373     1.84169     1.43490
    2 imaginary frequencies ignored.
 Zero-point vibrational energy     320413.3 (Joules/Mol)
                                   76.58063 (Kcal/Mol)
 Warning -- explicit consideration of   8 degrees of freedom as
           vibrations may cause significant error
 Vibrational temperatures:    101.17   202.99   299.20   466.10   641.98
          (Kelvin)            686.08   721.49   793.38   896.23  1079.21
                             1187.26  1281.29  1374.43  1419.48  1538.44
                             1563.42  1653.95  1778.49  1784.35  1871.60
                             2024.65  2037.00  2125.86  2133.56  2150.87
                             2160.51  2176.78  2561.85  2597.66  4383.46
                             4387.95  4398.85  4481.69  4490.30  4538.95
                             4540.07  4543.22

 Zero-point correction=                           0.122039 (Hartree/Particle)
 Thermal correction to Energy=                    0.128793
 Thermal correction to Enthalpy=                  0.129737
 Thermal correction to Gibbs Free Energy=         0.090738
 Sum of electronic and zero-point Energies=           -345.693866
 Sum of electronic and thermal Energies=              -345.687113
 Sum of electronic and thermal Enthalpies=            -345.686169
 Sum of electronic and thermal Free Energies=         -345.725167

                     E (Thermal)             CV                S
                      KCal/Mol        Cal/Mol-Kelvin    Cal/Mol-Kelvin
 Total                   80.819             24.005             82.079
 Electronic               0.000              0.000              0.000
 Translational            0.889              2.981             39.720
 Rotational               0.889              2.981             27.759
 Vibrational             79.041             18.044             14.601
 Vibration     1          0.598              1.968              4.144
 Vibration     2          0.615              1.912              2.789
 Vibration     3          0.641              1.829              2.062
 Vibration     4          0.709              1.628              1.290
 Vibration     5          0.805              1.369              0.807
 Vibration     6          0.833              1.301              0.719
 Vibration     7          0.857              1.247              0.654
 Vibration     8          0.907              1.137              0.541

 Optimization completed.
    -- Stationary point found.
 Normal termination of Gaussian 16 at Mon Sep 18 05:49:39 2023.
