 Gaussian 16, Revision B.01,
 Gaussian 16:  EM64L-G16RevB.01 20-Dec-2017

 ----------------------------------------------------------------------
 # opt freq b3lyp/6-31+g(d) empiricaldispersion=gd3 scf=maxcycle=1000 v
 olume
 ----------------------------------------------------------------------

 -------------------
 Title Card Required
 -------------------
 Symbolic Z-matrix:
 Charge =  0 Multiplicity = 1

 SCF Done:  E(RB3LYP) =  -345.355688230     A.U. after   11 cycles
 SCF Done:  E(RB3LYP) =  -345.355689163     A.U. after    8 cycles
 Optimization completed.
    -- Stationary point found.
 Normal termination of Gaussian 16 at Mon Sep 18 05:51:54 2023.

 ---------------------------------------------------------------------
 #N Geom=AllCheck Guess=TCheck SCRF=Check GenChk RB3LYP/6-31+G(d) Freq
 ---------------------------------------------------------------------

 Structure from the checkpoint file:  "molecule_10-volume.chk"
 -------------------
 Title Card Required
 -------------------
 Charge =  0 Multiplicity = 1

                         Standard orientation:
 ---------------------------------------------------------------------
 Center     Atomic      Atomic             Coordinates (Angstroms)
 Number     Number       Type             X           Y           Z
 ---------------------------------------------------------------------
      1          6           0        0.000574   -0.783183    1.385497
      2          6           0       -0.000574    0.783183    1.385497
      3          1           0       -0.883066   -1.187407    1.894534
      4          1           0        0.885129   -1.186089    1.893988
      5          1           0       -0.885129    1.186089    1.893988
      6          1           0        0.883066    1.187407    1.894534
      7          6           0       -1.199725   -0.783811   -0.692575
      8          1           0       -1.198449   -1.187402   -1.712553
      9          1           0       -2.082094   -1.187237   -0.180797
     10          6           0       -1.200195    0.782740   -0.692968
     11          1           0       -1.198521    1.185795   -1.713156
     12          1           0       -2.083120    1.185915   -0.181951
     13          6           0        1.199725    0.783811   -0.692575
     14          1           0        1.198449    1.187402   -1.712553
     15          1           0        2.082094    1.187237   -0.180797
     16          6           0        1.200195   -0.782740   -0.692968
     17          1           0        1.198521   -1.185795   -1.713156
     18          1           0        2.083120   -1.185915   -0.181951
     19          7           0       -0.000574    1.290496    0.000030
     20          7           0        0.000574   -1.290496    0.000030
 ---------------------------------------------------------------------

 SCF Done:  E(RB3LYP) =  -345.355689163     A.U. after    1 cycles

 The electronic state is 1-A.
 Alpha  occ. eigenvalues --  -14.33111 -14.33110 -10.20917 -10.20917 -10.20916
 Alpha  occ. eigenvalues --  -10.20900 -10.20900 -10.20899  -0.96266  -0.88276
 Alpha  occ. eigenvalues --   -0.75794  -0.75793  -0.64007  -0.64006  -0.63334
 Alpha  occ. eigenvalues --   -0.52123  -0.50361  -0.50361  -0.48578  -0.41617
 Alpha  occ. eigenvalues --   -0.41617  -0.41332  -0.39747  -0.39745  -0.38258
 Alpha  occ. eigenvalues --   -0.38253  -0.33205  -0.32554  -0.32551  -0.26348
 Alpha  occ. eigenvalues --   -0.19086
 Alpha virt. eigenvalues --    0.00586   0.01992   0.01992   0.02722   0.03779
 Alpha virt. eigenvalues --    0.04278   0.04279   0.04604   0.04604   0.06917
 Alpha virt. eigenvalues --    0.09069   0.09300   0.09300   0.10715   0.10716

 Mulliken charges:
               1
     1  C   -0.347152
     2  C   -0.347152
     3  H    0.198376
     4  H    0.198366
     5  H    0.198366
     6  H    0.198376
     7  C   -0.347072
     8  H    0.198375
     9  H    0.198363
    10  C   -0.347073
    11  H    0.198365
    12  H    0.198373
    13  C   -0.347072
    14  H    0.198375
    15  H    0.198363
    16  C   -0.347073
    17  H    0.198365
    18  H    0.198373
    19  N   -0.148922
    20  N   -0.148922
 Sum of Mulliken charges =   0.00000

 Dipole moment (field-independent basis, Debye):
    X=              0.0000    Y=              0.0000    Z=             -0.0003  Tot=              0.0003
 Quadrupole moment (field-independent basis, Debye-Ang):
   XX=            -47.5479   YY=            -59.5911   ZZ=            -47.5477
   XY=              0.0054   XZ=              0.0000   YZ=              0.0000

  Exact polarizability:  81.953   0.002  76.686   0.000   0.000  81.953
 Approx polarizability: 113.726   0.004 105.434   0.000   0.000 113.723

                      1                      2                      3
                      A                      B                      A
 Frequencies --     78.8888               351.3121               351.7809
 Red. masses --      1.6940                 1.7485                 1.7503
 Frc consts  --      0.0062                 0.1271                 0.1276
 IR Inten    --      0.0000                 0.0000                 0.0000

                      4                      5                      6
                      A                      B                      B
 Frequencies --    440.6663               440.7455               591.7369
 Red. masses --      2.3936                 2.3954                 3.5177
 Frc consts  --      0.2739                 0.2742                 0.7257
 IR Inten    --      0.0001                 0.0001                 0.0000

                      7                      8                      9
                      A                      A                      B
 Frequencies --    591.9253               602.0718               761.5765
 Red. masses --      3.5122                11.8224                 4.1997
 Frc consts  --      0.7250                 2.5250                 1.4351
 IR Inten    --      0.0000                 0.0000                72.1923

                     10                     11                     12
                      A                      B                      A
 Frequencies --    807.1031               820.6411               842.4080
 Red. masses --      5.2583                 1.1585                 1.2551
 Frc consts  --      2.0181                 0.4597                 0.5248
 IR Inten    --      0.0000                 0.0001                 5.1587

                     13                     14                     15
                      B                      B                      A
 Frequencies --    842.5000               892.8153               893.3501
 Red. masses --      1.2544                 3.6226                 3.6144
 Frc consts  --      0.5246                 1.7014                 1.6995
 IR Inten    --      5.1670                 4.5700                 4.5585

                     16                     17                     18
                      A                      B                      A
 Frequencies --    963.7008               993.3782              1037.3682
 Red. masses --      3.2740                 5.3281                 1.5246
 Frc consts  --      1.7915                 3.0978                 0.9667
 IR Inten    --      0.0004                18.0038                 0.0000

                     19                     20                     21
                      A                      B                      B
 Frequencies --   1038.8233              1038.8548              1077.3086
 Red. masses --      2.9926                 2.9933                 3.2135
 Frc consts  --      1.9028                 1.9033                 2.1974
 IR Inten    --      0.0000                 0.0000                43.8385

                     22                     23                     24
                      A                      B                      B
 Frequencies --   1077.6134              1205.9467              1209.9822
 Red. masses --      3.2061                 1.0415                 2.0363
 Frc consts  --      2.1936                 0.8924                 1.7565
 IR Inten    --     43.8167                 0.0000                 0.0000

                     25                     26                     27
                      A                      A                      A
 Frequencies --   1210.0650              1267.7967              1335.4758
 Red. masses --      2.0371                 1.0973                 1.2205
 Frc consts  --      1.7574                 1.0392                 1.2825
 IR Inten    --      0.0000                 0.0000                 0.0000

                     28                     29                     30
                      B                      B                      A
 Frequencies --   1335.5415              1341.4650              1341.5397
 Red. masses --      1.2214                 1.2155                 1.2172
 Frc consts  --      1.2836                 1.2887                 1.2907
 IR Inten    --      0.0000                 0.0034                 0.0066

                     31                     32                     33
                      A                      B                      B
 Frequencies --   1352.6998              1352.8358              1361.8788
 Red. masses --      1.3769                 1.3774                 1.4292
 Frc consts  --      1.4844                 1.4852                 1.5618
 IR Inten    --      0.0000                 0.0001                10.0805

                     34                     35                     36
                      A                      A                      B
 Frequencies --   1362.0084              1372.9610              1393.2986
 Red. masses --      1.4292                 1.2900                 1.3313
 Frc consts  --      1.5620                 1.4327                 1.5227
 IR Inten    --     10.0981                 0.0009                 8.4974

                     37                     38                     39
                      A                      B                      B
 Frequencies --   1503.2616              1503.9393              1514.8963
 Red. masses --      1.0803                 1.0802                 1.0807
 Frc consts  --      1.4384                 1.4395                 1.4613
 IR Inten    --      0.0000                 0.0033                 9.9917

                     40                     41                     42
                      A                      B                      A
 Frequencies --   1514.9133              1520.2171              1528.9855
 Red. masses --      1.0808                 1.0917                 1.0901
 Frc consts  --      1.4614                 1.4865                 1.5015
 IR Inten    --     10.0090                 6.8869                 0.0007

                     43                     44                     45
                      B                      A                      B
 Frequencies --   3033.0621              3033.2458              3035.4305
 Red. masses --      1.0581                 1.0581                 1.0600
 Frc consts  --      5.7353                 5.7359                 5.7542
 IR Inten    --      0.4347                 0.0000               117.5186

                     46                     47                     48
                      A                      B                      A
 Frequencies --   3041.8435              3042.0242              3049.8466
 Red. masses --      1.0584                 1.0584                 1.0615
 Frc consts  --      5.7702                 5.7708                 5.8174
 IR Inten    --    137.8303               137.5598                 0.0450

                     49                     50                     51
                      A                      A                      B
 Frequencies --   3067.8111              3070.8971              3071.1809
 Red. masses --      1.1086                 1.1073                 1.1073
 Frc consts  --      6.1472                 6.1524                 6.1536
 IR Inten    --      0.0000                 0.0000                 0.0001

                     52                     53                     54
                      B                      B                      A
 Frequencies --   3090.1912              3097.0620              3097.3455
 Red. masses --      1.1087                 1.1086                 1.1086
 Frc consts  --      6.2379                 6.2650                 6.2663
 IR Inten    --      0.1064               110.3569               110.1495

 - Thermochemistry -
 -------------------
 Temperature   298.150 Kelvin.  Pressure   1.00000 Atm.
 Atom     1 has atomic number  6 and mass  12.00000

 Molecular mass:   112.10005 amu.
 Principal axes and moments of inertia in atomic units:
                           1         2         3
     Eigenvalues --   682.33728 726.25768 726.29061
           X           -0.00043   1.00000   0.00000
           Y            1.00000   0.00043   0.00000
           Z            0.00000   0.00000   1.00000
 This molecule is an asymmetric top.
 Rotational symmetry number  2.
 Warning -- assumption of classical behavior for rotation
           may cause significant error
 Rotational temperatures (Kelvin)      0.12694     0.11926     0.11926
 Rotational constants (GHZ):           2.64494     2.48499     2.48487
 Zero-point vibrational energy     483268.7 (Joules/Mol)
                                  115.50399 (Kcal/Mol)
 Warning -- explicit consideration of   8 degrees of freedom as
           vibrations may cause significant error
 Vibrational temperatures:    113.50   505.46   506.13   634.02   634.13
          (Kelvin)            851.38   851.65   866.25  1095.74  1161.24
                             1180.72  1212.04  1212.17  1284.56  1285.33
                             1386.55  1429.25  1492.54  1494.63  1494.68
                             1550.01  1550.45  1735.09  1740.89  1741.01
                             1824.08  1921.45  1921.55  1930.07  1930.18
                             1946.23  1946.43  1959.44  1959.63  1975.38
                             2004.65  2162.86  2163.83  2179.60  2179.62
                             2187.25  2199.87  4363.90  4364.16  4367.31
                             4376.53  4376.79  4388.05  4413.90  4418.34
                             4418.74  4446.10  4455.98  4456.39

 Zero-point correction=                           0.184067 (Hartree/Particle)
 Thermal correction to Energy=                    0.190319
 Thermal correction to Enthalpy=                  0.191263
 Thermal correction to Gibbs Free Energy=         0.154390
 Sum of electronic and zero-point Energies=           -345.171622
 Sum of electronic and thermal Energies=              -345.165370
 Sum of electronic and thermal Enthalpies=            -345.164426
 Sum of electronic and thermal Free Energies=         -345.201299

                     E (Thermal)             CV                S
                      KCal/Mol        Cal/Mol-Kelvin    Cal/Mol-Kelvin
 Total                  119.427             25.956             77.607
 Electronic               0.000              0.000              0.000
 Translational            0.889              2.981             40.058
 Rotational               0.889              2.981             26.001
 Vibrational            117.650             19.995             11.548
 Vibration     1          0.600              1.963              3.918
 Vibration     2          0.728              1.573              1.160
 Vibration     3          0.728              1.572              1.158
 Vibration     4          0.801              1.381              0.825
 Vibration     5          0.801              1.381              0.824
 Vibration     6          0.949              1.049              0.464
 Vibration     7          0.949              1.049              0.464
 Vibration     8          0.960              1.027              0.446

 Optimization completed.
    -- Stationary point found.
 Normal termination of Gaussian 16 at Mon Sep 18 05:52:58 2023.
