 Gaussian 16, Revision B.01,
 Gaussian 16:  EM64L-G16RevB.01 20-Dec-2017

 ----------------------------------------------------------------------
 # opt freq b3lyp/6-31+g(d) empiricaldispersion=gd3 scf=maxcycle=1000 v
 olume
 ----------------------------------------------------------------------

 -------------------
 Title Card Required
 -------------------
 Symbolic Z-matrix:
 Charge =  0 Multiplicity = 1

 SCF Done:  E(RB3LYP) =  -190.532348365     A.U. after   12 cycles
 SCF Done:  E(RB3LYP) =  -190.532348480     A.U. after    7 cycles
 Optimization completed.
    -- Stationary point found.
 Normal termination of Gaussian 16 at Mon Sep 18 05:56:31 2023.

 ---------------------------------------------------------------------
 #N Geom=AllCheck Guess=TCheck SCRF=Check GenChk RB3LYP/6-31+G(d) Freq
 ---------------------------------------------------------------------

 Structure from the checkpoint file:  "molecule_13-volume.chk"
 -------------------
 Title Card Required
 -------------------
 Charge =  0 Multiplicity = 1

                         Standard orientation:
 ---------------------------------------------------------------------
 Center     Atomic      Atomic             Coordinates (Angstroms)
 Number     Number       Type             X           Y           Z
 ---------------------------------------------------------------------
      1          6           0       -0.724494    0.586703    0.289220
      2          6           0        0.685774    0.603200   -0.301039
      3          1           0       -1.242882    1.510305    0.001235
      4          1           0       -0.641266    0.594467    1.394213
      5          1           0        1.183427    1.549576   -0.027846
      6          1           0        0.605511    0.568853   -1.393569
      7          7           0       -1.472099   -0.556739   -0.238588
      8          1           0       -0.941333   -1.409268   -0.065333
      9          7           0        1.424006   -0.594886    0.133072
     10          1           0        2.264526   -0.734615   -0.422323
     11          1           0       -2.376136   -0.651227    0.218388
     12          1           0        1.717118   -0.506137    1.104764
 ---------------------------------------------------------------------

 SCF Done:  E(RB3LYP) =  -190.532348480     A.U. after    1 cycles

 The electronic state is 1-A.
 Alpha  occ. eigenvalues --  -14.32752 -14.31092 -10.21180 -10.20807  -0.89748
 Alpha  occ. eigenvalues --   -0.86065  -0.70848  -0.59601  -0.50565  -0.49100
 Alpha  occ. eigenvalues --   -0.44738  -0.44322  -0.38880  -0.36675  -0.35198
 Alpha  occ. eigenvalues --   -0.25114  -0.23044
 Alpha virt. eigenvalues --    0.00073   0.02105   0.02966   0.03651   0.06573
 Alpha virt. eigenvalues --    0.07325   0.08087   0.10175   0.11302   0.12598
 Alpha virt. eigenvalues --    0.14643   0.15112   0.16231   0.16964   0.20130

 Mulliken charges:
               1
     1  C   -0.246596
     2  C   -0.310826
     3  H    0.185044
     4  H    0.160116
     5  H    0.172324
     6  H    0.204327
     7  N   -0.808580
     8  H    0.392065
     9  N   -0.845117
    10  H    0.370346
    11  H    0.363533
    12  H    0.363365
 Sum of Mulliken charges =   0.00000

 Dipole moment (field-independent basis, Debye):
    X=              1.2062    Y=              0.7909    Z=              1.4980  Tot=              2.0795
 Quadrupole moment (field-independent basis, Debye-Ang):
   XX=            -23.1548   YY=            -27.8426   ZZ=            -27.6953
   XY=              0.1115   XZ=             -2.6483   YZ=             -0.9719

  Exact polarizability:  46.002   0.469  42.891   0.298   0.633  40.568
 Approx polarizability:  54.481  -0.038  55.077   0.394   0.860  54.661

                      1                      2                      3
                      A                      A                      A
 Frequencies --    185.2689               248.0349               304.6086
 Red. masses --      2.4606                 1.0638                 1.2820
 Frc consts  --      0.0498                 0.0386                 0.0701
 IR Inten    --      3.5770                25.6499                50.2703

                      4                      5                      6
                      A                      A                      A
 Frequencies --    362.6318               512.6816               828.3077
 Red. masses --      1.7640                 2.1298                 1.3127
 Frc consts  --      0.1367                 0.3298                 0.5306
 IR Inten    --     32.9712                13.5743               111.1841

                      7                      8                      9
                      A                      A                      A
 Frequencies --    863.9825               884.1262               935.4426
 Red. masses --      1.8331                 1.4960                 1.5930
 Frc consts  --      0.8062                 0.6890                 0.8213
 IR Inten    --     68.6842               112.7326                52.7928

                     10                     11                     12
                      A                      A                      A
 Frequencies --   1018.8586              1058.6455              1122.2945
 Red. masses --      1.3952                 1.9517                 2.4827
 Frc consts  --      0.8533                 1.2888                 1.8424
 IR Inten    --     14.1847                10.9212                 5.9253

                     13                     14                     15
                      A                      A                      A
 Frequencies --   1190.8551              1228.7818              1335.9331
 Red. masses --      1.2705                 1.3888                 1.2391
 Frc consts  --      1.0616                 1.2355                 1.3029
 IR Inten    --      4.4020                 4.2899                 4.7792

                     16                     17                     18
                      A                      A                      A
 Frequencies --   1352.2560              1414.5850              1448.6944
 Red. masses --      1.1603                 1.3281                 1.5045
 Frc consts  --      1.2501                 1.5658                 1.8604
 IR Inten    --      4.6983                13.6510                 9.8533

                     19                     20                     21
                      A                      A                      A
 Frequencies --   1518.2651              1530.3158              1684.9683
 Red. masses --      1.0857                 1.0861                 1.0870
 Frc consts  --      1.4745                 1.4986                 1.8183
 IR Inten    --      4.1554                 4.5184                50.8369

                     22                     23                     24
                      A                      A                      A
 Frequencies --   1696.0456              2922.2860              2975.5574
 Red. masses --      1.0886                 1.0740                 1.0724
 Frc consts  --      1.8451                 5.4037                 5.5940
 IR Inten    --     40.1746               104.4256                95.6859

                     25                     26                     27
                      A                      A                      A
 Frequencies --   3061.0303              3087.9093              3483.6031
 Red. masses --      1.0863                 1.0911                 1.0495
 Frc consts  --      5.9973                 6.1300                 7.5037
 IR Inten    --     48.2252                31.5868                 4.5186

                     28                     29                     30
                      A                      A                      A
 Frequencies --   3484.3949              3572.9596              3574.4491
 Red. masses --      1.0504                 1.0935                 1.0929
 Frc consts  --      7.5137                 8.2245                 8.2271
 IR Inten    --      0.5168                 4.6324                 2.1039

 - Thermochemistry -
 -------------------
 Temperature   298.150 Kelvin.  Pressure   1.00000 Atm.
 Atom     1 has atomic number  6 and mass  12.00000

 Molecular mass:    60.06875 amu.
 Principal axes and moments of inertia in atomic units:
                           1         2         3
     Eigenvalues --   124.61063 348.72970 412.77564
           X            0.99987   0.00394  -0.01583
           Y           -0.00420   0.99986  -0.01639
           Z            0.01577   0.01646   0.99974
 This molecule is an asymmetric top.
 Rotational symmetry number  1.
 Rotational temperatures (Kelvin)      0.69508     0.24837     0.20983
 Rotational constants (GHZ):          14.48304     5.17519     4.37221
 Zero-point vibrational energy     292413.8 (Joules/Mol)
                                   69.88858 (Kcal/Mol)
 Warning -- explicit consideration of   5 degrees of freedom as
           vibrations may cause significant error
 Vibrational temperatures:    266.56   356.87   438.26   521.75   737.63
          (Kelvin)           1191.75  1243.08  1272.06  1345.89  1465.91
                             1523.15  1614.73  1713.37  1767.94  1922.11
                             1945.59  2035.27  2084.35  2184.44  2201.78
                             2424.29  2440.23  4204.52  4281.16  4404.14
                             4442.81  5012.13  5013.27  5140.69  5142.84

 Zero-point correction=                           0.111375 (Hartree/Particle)
 Thermal correction to Energy=                    0.116658
 Thermal correction to Enthalpy=                  0.117602
 Thermal correction to Gibbs Free Energy=         0.083978
 Sum of electronic and zero-point Energies=           -190.420974
 Sum of electronic and thermal Energies=              -190.415690
 Sum of electronic and thermal Enthalpies=            -190.414746
 Sum of electronic and thermal Free Energies=         -190.448370

                     E (Thermal)             CV                S
                      KCal/Mol        Cal/Mol-Kelvin    Cal/Mol-Kelvin
 Total                   73.204             18.149             70.768
 Electronic               0.000              0.000              0.000
 Translational            0.889              2.981             38.199
 Rotational               0.889              2.981             24.398
 Vibrational             71.427             12.188              8.171
 Vibration     1          0.631              1.860              2.275
 Vibration     2          0.662              1.766              1.745
 Vibration     3          0.696              1.665              1.391
 Vibration     4          0.736              1.549              1.111
 Vibration     5          0.868              1.222              0.627

                           ! Non-Optimized Parameters !
 Normal termination of Gaussian 16 at Mon Sep 18 05:56:44 2023.
