 Gaussian 09, Revision D.01,
 Gaussian 09:  EM64W-G09RevD.01 13-Apr-2013

 --------------------------------------------------------------------
 # opt freq b3lyp/6-31+g(d) geom=connectivity empiricaldispersion=gd3
 --------------------------------------------------------------------

 -------------------
 Title Card Required
 -------------------
 Symbolic Z-matrix:
 Charge =  0 Multiplicity = 1

 SCF Done:  E(RB3LYP) =  -402.361536513     A.U. after   14 cycles
 SCF Done:  E(RB3LYP) =  -402.381902259     A.U. after   13 cycles
 SCF Done:  E(RB3LYP) =  -402.385968194     A.U. after   12 cycles
 SCF Done:  E(RB3LYP) =  -402.383735790     A.U. after   13 cycles
 SCF Done:  E(RB3LYP) =  -402.386625535     A.U. after   10 cycles
 SCF Done:  E(RB3LYP) =  -402.387411226     A.U. after   12 cycles
 SCF Done:  E(RB3LYP) =  -402.387823489     A.U. after   11 cycles
 SCF Done:  E(RB3LYP) =  -402.388166144     A.U. after   12 cycles
 SCF Done:  E(RB3LYP) =  -402.390313762     A.U. after   14 cycles
 SCF Done:  E(RB3LYP) =  -402.372279048     A.U. after   14 cycles
 SCF Done:  E(RB3LYP) =  -402.400632513     A.U. after   12 cycles
 SCF Done:  E(RB3LYP) =  -402.400930749     A.U. after   11 cycles
 SCF Done:  E(RB3LYP) =  -402.401165410     A.U. after   12 cycles
 SCF Done:  E(RB3LYP) =  -402.401200586     A.U. after   11 cycles
 SCF Done:  E(RB3LYP) =  -402.401206220     A.U. after   10 cycles
 SCF Done:  E(RB3LYP) =  -402.401206969     A.U. after   10 cycles
 SCF Done:  E(RB3LYP) =  -402.401207129     A.U. after    9 cycles
 SCF Done:  E(RB3LYP) =  -402.401207162     A.U. after    9 cycles
 SCF Done:  E(RB3LYP) =  -402.401207159     A.U. after    9 cycles
 Optimization completed.
    -- Stationary point found.
 Normal termination of Gaussian 09 at Thu Aug 24 16:08:18 2023.

 ---------------------------------------------------------------------
 #N Geom=AllCheck Guess=TCheck SCRF=Check GenChk RB3LYP/6-31+G(d) Freq
 ---------------------------------------------------------------------

 Structure from the checkpoint file:  "D:\Reaction optimization project\source code\DFT\opti\ligand\input\molecule_6.chk"
 -------------------
 Title Card Required
 -------------------
 Charge =  0 Multiplicity = 1

                         Standard orientation:
 ---------------------------------------------------------------------
 Center     Atomic      Atomic             Coordinates (Angstroms)
 Number     Number       Type             X           Y           Z
 ---------------------------------------------------------------------
      1          6           0       -1.190103   -1.688909    0.269111
      2          6           0       -1.130347   -0.156233    0.365246
      3          6           0        0.038485    0.444817   -0.465605
      4          7           0        0.212138    1.876644   -0.149707
      5          6           0        1.366864   -0.265358   -0.139172
      6          8           0        2.091029    0.342664    0.819910
      7          8           0        1.721264   -1.293182   -0.670132
      8          6           0       -2.478097    0.442334   -0.077968
      9          1           0       -0.289768   -2.166598    0.663011
     10          1           0       -1.303222   -2.011232   -0.773088
     11          1           0       -2.051287   -2.061277    0.835806
     12          1           0       -0.952388    0.121186    1.415229
     13          1           0       -0.162266    0.255819   -1.529155
     14          1           0       -0.674643    2.345613    0.008888
     15          1           0        0.684118    2.369712   -0.905315
     16          1           0        1.628982    1.198520    0.998155
     17          1           0       -2.678702    0.202989   -1.130415
     18          1           0       -2.531953    1.531795    0.035443
     19          1           0       -3.292991    0.021199    0.521499
 ---------------------------------------------------------------------

 SCF Done:  E(RB3LYP) =  -402.401207159     A.U. after    1 cycles

 The electronic state is 1-A.
 Alpha  occ. eigenvalues --  -19.19492 -19.14166 -14.36494 -10.31980 -10.25023
 Alpha  occ. eigenvalues --  -10.22069 -10.20071 -10.18466  -1.10255  -1.02173
 Alpha  occ. eigenvalues --   -0.92615  -0.81473  -0.71813  -0.69594  -0.61005
 Alpha  occ. eigenvalues --   -0.59660  -0.53684  -0.52083  -0.50093  -0.46119
 Alpha  occ. eigenvalues --   -0.45606  -0.43540  -0.43022  -0.40887  -0.39938
 Alpha  occ. eigenvalues --   -0.37892  -0.35907  -0.35794  -0.34978  -0.31586
 Alpha  occ. eigenvalues --   -0.30031  -0.26913
 Alpha virt. eigenvalues --   -0.01690  -0.00385   0.00920   0.01872   0.02306
 Alpha virt. eigenvalues --    0.04662   0.05260   0.05453   0.06113   0.06837
 Alpha virt. eigenvalues --    0.08683   0.09118   0.09285   0.09758   0.10817

 Mulliken charges:
               1
     1  C   -0.648147
     2  C   -0.084490
     3  C   -0.008599
     4  N   -0.949778
     5  C    0.420471
     6  O   -0.553966
     7  O   -0.441862
     8  C   -0.707877
     9  H    0.233288
    10  H    0.222155
    11  H    0.198766
    12  H    0.204591
    13  H    0.214446
    14  H    0.377390
    15  H    0.401319
    16  H    0.508966
    17  H    0.218557
    18  H    0.178446
    19  H    0.216324
 Sum of Mulliken charges =   0.00000

 Dipole moment (field-independent basis, Debye):
    X=             -3.9661    Y=              3.6448    Z=             -0.2475  Tot=              5.3922
 Quadrupole moment (field-independent basis, Debye-Ang):
   XX=            -57.2867   YY=            -48.9904   ZZ=            -50.1665
   XY=              4.7586   XZ=             -0.6554   YZ=             -3.6730

  Exact polarizability:  79.440  -1.428  78.420   1.249   3.325  64.923
 Approx polarizability:  98.774  -3.158 107.979   1.709  10.555  98.469

                      1                      2                      3
                      A                      A                      A
 Frequencies --     44.3267                76.8830               187.1424
 Red. masses --      2.5942                 4.9350                 2.4568
 Frc consts  --      0.0030                 0.0172                 0.0507
 IR Inten    --      2.0993                 1.5553                 4.0043

                      4                      5                      6
                      A                      A                      A
 Frequencies --    217.8115               247.8497               281.2580
 Red. masses --      1.3027                 1.2385                 1.2487
 Frc consts  --      0.0364                 0.0448                 0.0582
 IR Inten    --      4.0969                 3.4858                24.2345

                      7                      8                      9
                      A                      A                      A
 Frequencies --    324.2923               342.8591               377.2493
 Red. masses --      2.6045                 3.2185                 3.3145
 Frc consts  --      0.1614                 0.2229                 0.2779
 IR Inten    --      4.3492                 6.7354                 2.8553

                     10                     11                     12
                      A                      A                      A
 Frequencies --    407.5347               453.0664               547.4274
 Red. masses --      2.3341                 2.5758                 4.9033
 Frc consts  --      0.2284                 0.3115                 0.8657
 IR Inten    --      0.4646                 0.7021                 2.5557

                     13                     14                     15
                      A                      A                      A
 Frequencies --    669.9790               718.7196               827.1930
 Red. masses --      4.5709                 6.3332                 1.6126
 Frc consts  --      1.2088                 1.9275                 0.6501
 IR Inten    --     13.8276                 9.4380                45.3873

                     16                     17                     18
                      A                      A                      A
 Frequencies --    853.5713               859.4683               929.4349
 Red. masses --      1.7548                 1.8121                 1.9699
 Frc consts  --      0.7533                 0.7887                 1.0026
 IR Inten    --     52.3051                20.7603                41.2393

                     19                     20                     21
                      A                      A                      A
 Frequencies --    947.1505               959.2360               979.8983
 Red. masses --      1.5666                 1.3358                 1.5120
 Frc consts  --      0.8280                 0.7241                 0.8554
 IR Inten    --     79.0222                13.3240                 0.9763

                     22                     23                     24
                      A                      A                      A
 Frequencies --   1069.5109              1094.0775              1142.3401
 Red. masses --      3.3676                 1.3997                 2.2522
 Frc consts  --      2.2696                 0.9871                 1.7316
 IR Inten    --     11.0471                28.6875                 1.0095

                     25                     26                     27
                      A                      A                      A
 Frequencies --   1199.5581              1210.5398              1266.3331
 Red. masses --      1.7389                 2.4646                 1.5564
 Frc consts  --      1.4743                 2.1279                 1.4705
 IR Inten    --      5.3837                10.3715                 2.4043

                     28                     29                     30
                      A                      A                      A
 Frequencies --   1326.0929              1339.8482              1367.8543
 Red. masses --      1.3783                 1.2824                 1.4370
 Frc consts  --      1.4281                 1.3564                 1.5841
 IR Inten    --      9.3517                16.2534                 0.9238

                     31                     32                     33
                      A                      A                      A
 Frequencies --   1393.4548              1412.8061              1434.8349
 Red. masses --      1.3543                 1.6082                 1.2264
 Frc consts  --      1.5494                 1.8913                 1.4875
 IR Inten    --      8.5604               395.3932                 4.8518

                     34                     35                     36
                      A                      A                      A
 Frequencies --   1457.6621              1507.0252              1520.3579
 Red. masses --      1.2039                 1.0473                 1.0420
 Frc consts  --      1.5072                 1.4014                 1.4191
 IR Inten    --      8.1376                 0.2596                 3.6923

                     37                     38                     39
                      A                      A                      A
 Frequencies --   1528.6008              1540.7839              1695.1568
 Red. masses --      1.0583                 1.0441                 1.0889
 Frc consts  --      1.4569                 1.4604                 1.8435
 IR Inten    --      5.1524                18.5155                42.9573

                     40                     41                     42
                      A                      A                      A
 Frequencies --   1843.8432              3017.4041              3036.8636
 Red. masses --      9.4353                 1.0826                 1.0396
 Frc consts  --     18.8996                 5.8076                 5.6488
 IR Inten    --    308.1833                 5.4169                27.0999

                     43                     44                     45
                      A                      A                      A
 Frequencies --   3041.7252              3051.8055              3097.3711
 Red. masses --      1.0807                 1.0402                 1.1014
 Frc consts  --      5.8909                 5.7078                 6.2253
 IR Inten    --     26.7335                28.0339                44.8472

                     46                     47                     48
                      A                      A                      A
 Frequencies --   3107.8661              3114.1333              3145.4251
 Red. masses --      1.1019                 1.1010                 1.0993
 Frc consts  --      6.2705                 6.2911                 6.4081
 IR Inten    --      2.1362                58.4543                15.3273

                     49                     50                     51
                      A                      A                      A
 Frequencies --   3431.6330              3506.1222              3593.8486
 Red. masses --      1.0645                 1.0518                 1.0922
 Frc consts  --      7.3861                 7.6179                 8.3117
 IR Inten    --    208.0708                 0.8914                 9.5758

 - Thermochemistry -
 -------------------
 Temperature   298.150 Kelvin.  Pressure   1.00000 Atm.
 Atom     1 has atomic number  6 and mass  12.00000

 Molecular mass:   117.07898 amu.
 Principal axes and moments of inertia in atomic units:
                           1         2         3
     Eigenvalues --   640.006921120.285861524.10001
           X            0.99941   0.03423   0.00038
           Y           -0.03421   0.99909  -0.02547
           Z           -0.00125   0.02544   0.99968
 This molecule is an asymmetric top.
 Rotational symmetry number  1.
 Warning -- assumption of classical behavior for rotation
           may cause significant error
 Rotational temperatures (Kelvin)      0.13533     0.07731     0.05683
 Rotational constants (GHZ):           2.81988     1.61096     1.18414
 Zero-point vibrational energy     435125.1 (Joules/Mol)
                                  103.99738 (Kcal/Mol)
 Warning -- explicit consideration of  12 degrees of freedom as
           vibrations may cause significant error
 Vibrational temperatures:     63.78   110.62   269.26   313.38   356.60
          (Kelvin)            404.67   466.58   493.30   542.78   586.35
                              651.86   787.62   963.95  1034.08  1190.14
                             1228.10  1236.58  1337.25  1362.74  1380.12
                             1409.85  1538.79  1574.13  1643.57  1725.89
                             1741.69  1821.97  1907.95  1927.74  1968.03
                             2004.87  2032.71  2064.40  2097.25  2168.27
                             2187.45  2199.31  2216.84  2438.95  2652.88
                             4341.37  4369.36  4376.36  4390.86  4456.42
                             4471.52  4480.54  4525.56  4937.35  5044.52
                             5170.74

 Zero-point correction=                           0.165730 (Hartree/Particle)
 Thermal correction to Energy=                    0.174886
 Thermal correction to Enthalpy=                  0.175830
 Thermal correction to Gibbs Free Energy=         0.131601
 Sum of electronic and zero-point Energies=           -402.235477
 Sum of electronic and thermal Energies=              -402.226321
 Sum of electronic and thermal Enthalpies=            -402.225377
 Sum of electronic and thermal Free Energies=         -402.269607

                     E (Thermal)             CV                S
                      KCal/Mol        Cal/Mol-Kelvin    Cal/Mol-Kelvin
 Total                  109.743             33.393             93.089
 Electronic               0.000              0.000              0.000
 Translational            0.889              2.981             40.188
 Rotational               0.889              2.981             28.482
 Vibrational            107.965             27.431             24.419
 Vibration     1          0.595              1.980              5.056
 Vibration     2          0.599              1.965              3.969
 Vibration     3          0.632              1.857              2.256
 Vibration     4          0.646              1.814              1.977
 Vibration     5          0.661              1.766              1.746
 Vibration     6          0.681              1.708              1.526
 Vibration     7          0.709              1.627              1.288
 Vibration     8          0.722              1.590              1.199
 Vibration     9          0.748              1.519              1.050
 Vibration    10          0.772              1.454              0.935
 Vibration    11          0.812              1.354              0.787
 Vibration    12          0.903              1.145              0.550

 Optimization completed.
    -- Stationary point found.
 Normal termination of Gaussian 09 at Thu Aug 24 16:10:34 2023.
