 Gaussian 16, Revision B.01,
 Gaussian 16:  EM64L-G16RevB.01 20-Dec-2017

 ----------------------------------------------------------------------
 # opt freq b3lyp/6-31+g(d) empiricaldispersion=gd3 scf=maxcycle=1000 v
 olume
 ----------------------------------------------------------------------

 -------------------
 Title Card Required
 -------------------
 Symbolic Z-matrix:
 Charge =  0 Multiplicity = 1

 SCF Done:  E(RB3LYP) =  -386.341365250     A.U. after   12 cycles
 SCF Done:  E(RB3LYP) =  -386.341365874     A.U. after    8 cycles
 SCF Done:  E(RB3LYP) =  -386.341366052     A.U. after    7 cycles
 SCF Done:  E(RB3LYP) =  -386.341366131     A.U. after    7 cycles
 SCF Done:  E(RB3LYP) =  -386.341366172     A.U. after    7 cycles
 Optimization completed.
    -- Stationary point found.
 Normal termination of Gaussian 16 at Mon Sep 18 05:57:26 2023.

 ---------------------------------------------------------------------
 #N Geom=AllCheck Guess=TCheck SCRF=Check GenChk RB3LYP/6-31+G(d) Freq
 ---------------------------------------------------------------------

 Structure from the checkpoint file:  "molecule_14-volume.chk"
 -------------------
 Title Card Required
 -------------------
 Charge =  0 Multiplicity = 1

                         Standard orientation:
 ---------------------------------------------------------------------
 Center     Atomic      Atomic             Coordinates (Angstroms)
 Number     Number       Type             X           Y           Z
 ---------------------------------------------------------------------
      1          6           0        1.440537    1.295860    0.073350
      2          6           0       -0.063413    1.410237    0.377466
      3          6           0       -0.873815    0.463448   -0.511889
      4          6           0       -0.402033   -0.992061   -0.376292
      5          6           0        1.098786   -1.109361   -0.650907
      6          6           0        1.921784   -0.155479    0.229590
      7          1           0       -0.252135    1.145593    1.425333
      8          1           0       -0.409417    2.443796    0.228733
      9          1           0        1.632860    1.637648   -0.955489
     10          1           0        2.005786    1.962703    0.736394
     11          1           0       -0.965346   -1.602823   -1.099641
     12          1           0        1.401433   -2.150200   -0.487264
     13          1           0        1.275725   -0.882958   -1.712540
     14          1           0        1.821181   -0.461987    1.278134
     15          1           0        2.985201   -0.232996   -0.030457
     16          1           0       -0.760295    0.760480   -1.567697
     17          8           0       -0.645006   -1.477405    0.946008
     18          1           0       -1.567452   -1.258275    1.161812
     19          8           0       -2.270108    0.452281   -0.167992
     20          1           0       -2.577703    1.364157   -0.049364
 ---------------------------------------------------------------------

 SCF Done:  E(RB3LYP) =  -386.341366172     A.U. after    1 cycles

 The electronic state is 1-A.
 Alpha  occ. eigenvalues --  -19.16889 -19.14822 -10.24346 -10.23632 -10.19064
 Alpha  occ. eigenvalues --  -10.19017 -10.18556 -10.18255  -1.04139  -1.01213
 Alpha  occ. eigenvalues --   -0.82617  -0.74679  -0.73455  -0.62767  -0.61174
 Alpha  occ. eigenvalues --   -0.55996  -0.52264  -0.49853  -0.49317  -0.45413
 Alpha  occ. eigenvalues --   -0.42993  -0.41248  -0.40655  -0.39354  -0.37545
 Alpha  occ. eigenvalues --   -0.36306  -0.34291  -0.33256  -0.32405  -0.31168
 Alpha  occ. eigenvalues --   -0.28725  -0.26901
 Alpha virt. eigenvalues --   -0.00653   0.00843   0.01766   0.02469   0.03828
 Alpha virt. eigenvalues --    0.04494   0.05355   0.05875   0.06635   0.08749
 Alpha virt. eigenvalues --    0.09407   0.09622   0.10057   0.10340   0.10956

 Mulliken charges:
               1
     1  C   -0.417237
     2  C   -0.391671
     3  C   -0.057107
     4  C    0.128106
     5  C   -0.481717
     6  C   -0.358409
     7  H    0.228841
     8  H    0.183348
     9  H    0.195305
    10  H    0.198058
    11  H    0.177741
    12  H    0.213749
    13  H    0.198620
    14  H    0.224904
    15  H    0.192623
    16  H    0.184233
    17  O   -0.674301
    18  H    0.486331
    19  O   -0.693393
    20  H    0.461976
 Sum of Mulliken charges =   0.00000

 Dipole moment (field-independent basis, Debye):
    X=              0.2039    Y=              2.3114    Z=             -0.9300  Tot=              2.4998
 Quadrupole moment (field-independent basis, Debye-Ang):
   XX=            -50.3574   YY=            -50.3448   ZZ=            -51.2079
   XY=             -2.9975   XZ=             -1.6447   YZ=              1.9735

  Exact polarizability:  81.765  -0.977  77.139  -0.666   1.374  69.754
 Approx polarizability: 103.832  -1.191 101.032  -2.070  -0.773 103.181

                      1                      2                      3
                      A                      A                      A
 Frequencies --    147.0353               189.4778               250.9308
 Red. masses --      3.9429                 2.5698                 1.3620
 Frc consts  --      0.0502                 0.0544                 0.0505
 IR Inten    --      3.2803                 0.7299                62.7915

                      4                      5                      6
                      A                      A                      A
 Frequencies --    272.8940               310.4289               369.7043
 Red. masses --      2.3826                 2.1140                 3.2999
 Frc consts  --      0.1045                 0.1200                 0.2657
 IR Inten    --     53.6128                 3.9800                 7.9157

                      7                      8                      9
                      A                      A                      A
 Frequencies --    391.0925               415.8075               456.7954
 Red. masses --      2.0309                 2.4023                 1.3556
 Frc consts  --      0.1830                 0.2447                 0.1667
 IR Inten    --      2.5594                22.2886               113.3624

                     10                     11                     12
                      A                      A                      A
 Frequencies --    503.3038               599.2844               674.9369
 Red. masses --      2.3820                 2.7774                 2.6496
 Frc consts  --      0.3555                 0.5877                 0.7112
 IR Inten    --      8.3421                12.5871                 7.3245

                     13                     14                     15
                      A                      A                      A
 Frequencies --    787.1553               836.8927               858.7458
 Red. masses --      2.4857                 1.7994                 2.5185
 Frc consts  --      0.9074                 0.7425                 1.0943
 IR Inten    --      2.2949                 6.2648                 4.7286

                     16                     17                     18
                      A                      A                      A
 Frequencies --    898.5433               936.3536               975.1463
 Red. masses --      2.0800                 1.6833                 2.3606
 Frc consts  --      0.9894                 0.8696                 1.3226
 IR Inten    --      8.2841                14.0274                 4.0767

                     19                     20                     21
                      A                      A                      A
 Frequencies --   1008.8127              1042.4443              1061.9903
 Red. masses --      2.2535                 1.6978                 1.8389
 Frc consts  --      1.3512                 1.0870                 1.2219
 IR Inten    --     53.5254                12.8062                31.1584

                     22                     23                     24
                      A                      A                      A
 Frequencies --   1081.5146              1093.8205              1150.4497
 Red. masses --      4.4868                 2.1838                 1.2178
 Frc consts  --      3.0921                 1.5394                 0.9496
 IR Inten    --     57.1567                20.0505                 7.9005

                     25                     26                     27
                      A                      A                      A
 Frequencies --   1160.7414              1182.0133              1266.8663
 Red. masses --      2.2096                 1.1533                 1.1593
 Frc consts  --      1.7540                 0.9494                 1.0962
 IR Inten    --     12.1536                33.2404                15.5628

                     28                     29                     30
                      A                      A                      A
 Frequencies --   1267.9999              1287.5720              1305.7519
 Red. masses --      1.2795                 1.2631                 1.2241
 Frc consts  --      1.2121                 1.2338                 1.2297
 IR Inten    --     39.4135                 6.4158                10.3039

                     31                     32                     33
                      A                      A                      A
 Frequencies --   1350.8019              1369.3542              1379.9157
 Red. masses --      1.2295                 1.3036                 1.3385
 Frc consts  --      1.3218                 1.4402                 1.5016
 IR Inten    --      1.8340                 5.7072                13.1879

                     34                     35                     36
                      A                      A                      A
 Frequencies --   1393.1396              1399.0493              1417.4488
 Red. masses --      1.3841                 1.4852                 1.4743
 Frc consts  --      1.5827                 1.7128                 1.7453
 IR Inten    --      1.9385                 2.7359                 0.4107

                     37                     38                     39
                      A                      A                      A
 Frequencies --   1425.7327              1443.4518              1502.4646
 Red. masses --      1.5169                 1.6663                 1.0903
 Frc consts  --      1.8167                 2.0456                 1.4501
 IR Inten    --     29.7771                 9.1560                 3.5168

                     40                     41                     42
                      A                      A                      A
 Frequencies --   1509.4105              1514.4767              1526.1658
 Red. masses --      1.0993                 1.0814                 1.0952
 Frc consts  --      1.4756                 1.4613                 1.5029
 IR Inten    --      5.5287                 7.7638                 4.6371

                     43                     44                     45
                      A                      A                      A
 Frequencies --   2985.9939              3001.0179              3011.4975
 Red. masses --      1.0830                 1.0832                 1.0681
 Frc consts  --      5.6894                 5.7477                 5.7071
 IR Inten    --     25.4546                59.5014                30.6009

                     46                     47                     48
                      A                      A                      A
 Frequencies --   3023.5980              3033.5859              3044.4662
 Red. masses --      1.0663                 1.0689                 1.0634
 Frc consts  --      5.7435                 5.7958                 5.8072
 IR Inten    --     60.5509                54.7896                29.1762

                     49                     50                     51
                      A                      A                      A
 Frequencies --   3068.5885              3081.1281              3085.0811
 Red. masses --      1.0924                 1.0987                 1.0968
 Frc consts  --      6.0607                 6.1451                 6.1507
 IR Inten    --     49.8454                21.7800                36.7275

                     52                     53                     54
                      A                      A                      A
 Frequencies --   3092.9702              3718.0923              3750.6388
 Red. masses --      1.1012                 1.0656                 1.0666
 Frc consts  --      6.2068                 8.6790                 8.8403
 IR Inten    --     62.5652                40.0327                20.4167

 - Thermochemistry -
 -------------------
 Temperature   298.150 Kelvin.  Pressure   1.00000 Atm.
 Atom     1 has atomic number  6 and mass  12.00000

 Molecular mass:   116.08373 amu.
 Principal axes and moments of inertia in atomic units:
                           1         2         3
     Eigenvalues --   637.13668 920.793581268.95115
           X            0.99994  -0.01004  -0.00379
           Y            0.01015   0.99946   0.03116
           Z            0.00347  -0.03120   0.99951
 This molecule is an asymmetric top.
 Rotational symmetry number  1.
 Warning -- assumption of classical behavior for rotation
           may cause significant error
 Rotational temperatures (Kelvin)      0.13594     0.09406     0.06826
 Rotational constants (GHZ):           2.83258     1.95998     1.42223
 Zero-point vibrational energy     472002.0 (Joules/Mol)
                                  112.81119 (Kcal/Mol)
 Warning -- explicit consideration of  11 degrees of freedom as
           vibrations may cause significant error
 Vibrational temperatures:    211.55   272.62   361.03   392.63   446.64
          (Kelvin)            531.92   562.69   598.25   657.23   724.14
                              862.24   971.08  1132.54  1204.10  1235.54
                             1292.80  1347.20  1403.02  1451.46  1499.84
                             1527.97  1556.06  1573.76  1655.24  1670.05
                             1700.65  1822.74  1824.37  1852.53  1878.69
                             1943.50  1970.20  1985.39  2004.42  2012.92
                             2039.39  2051.31  2076.81  2161.71  2171.71
                             2178.99  2195.81  4296.18  4317.80  4332.87
                             4350.28  4364.65  4380.31  4415.01  4433.06
                             4438.74  4450.09  5349.51  5396.33

 Zero-point correction=                           0.179776 (Hartree/Particle)
 Thermal correction to Energy=                    0.187587
 Thermal correction to Enthalpy=                  0.188531
 Thermal correction to Gibbs Free Energy=         0.148232
 Sum of electronic and zero-point Energies=           -386.161590
 Sum of electronic and thermal Energies=              -386.153779
 Sum of electronic and thermal Enthalpies=            -386.152835
 Sum of electronic and thermal Free Energies=         -386.193134

                     E (Thermal)             CV                S
                      KCal/Mol        Cal/Mol-Kelvin    Cal/Mol-Kelvin
 Total                  117.713             31.062             84.817
 Electronic               0.000              0.000              0.000
 Translational            0.889              2.981             40.163
 Rotational               0.889              2.981             28.100
 Vibrational            115.935             25.100             16.554
 Vibration     1          0.617              1.906              2.710
 Vibration     2          0.633              1.854              2.233
 Vibration     3          0.663              1.761              1.724
 Vibration     4          0.676              1.723              1.578
 Vibration     5          0.699              1.654              1.360
 Vibration     6          0.742              1.534              1.081
 Vibration     7          0.759              1.489              0.996
 Vibration     8          0.779              1.436              0.906
 Vibration     9          0.815              1.346              0.775
 Vibration    10          0.859              1.243              0.650
 Vibration    11          0.957              1.033              0.451

 Optimization completed.
    -- Stationary point found.
 Normal termination of Gaussian 16 at Mon Sep 18 05:58:38 2023.
