 Gaussian 16, Revision B.01,
 Gaussian 16:  EM64L-G16RevB.01 20-Dec-2017

 ---------------------------------------------------------
 # opt freq b3lyp/6-31+g(d) empiricaldispersion=gd3 volume
 ---------------------------------------------------------

 -------------------
 Title Card Required
 -------------------
 Symbolic Z-matrix:
 Charge =  0 Multiplicity = 1

 SCF Done:  E(RB3LYP) =  -402.401211468     A.U. after   13 cycles
 SCF Done:  E(RB3LYP) =  -402.401210029     A.U. after   10 cycles
 SCF Done:  E(RB3LYP) =  -402.401211618     A.U. after    9 cycles
 SCF Done:  E(RB3LYP) =  -402.401211665     A.U. after    8 cycles
 Optimization completed.
    -- Stationary point found.
 Normal termination of Gaussian 16 at Mon Sep 18 05:47:52 2023.

 ---------------------------------------------------------------------
 #N Geom=AllCheck Guess=TCheck SCRF=Check GenChk RB3LYP/6-31+G(d) Freq
 ---------------------------------------------------------------------

 Structure from the checkpoint file:  "molecule_6-volume.chk"
 -------------------
 Title Card Required
 -------------------
 Charge =  0 Multiplicity = 1

                         Standard orientation:
 ---------------------------------------------------------------------
 Center     Atomic      Atomic             Coordinates (Angstroms)
 Number     Number       Type             X           Y           Z
 ---------------------------------------------------------------------
      1          6           0       -1.188780   -1.689115    0.269754
      2          6           0       -1.129990   -0.156309    0.365182
      3          6           0        0.038272    0.445327   -0.465960
      4          7           0        0.211972    1.877019   -0.149378
      5          6           0        1.366752   -0.264768   -0.139684
      6          8           0        2.089136    0.341646    0.821707
      7          8           0        1.722113   -1.291604   -0.671880
      8          6           0       -2.478129    0.441065   -0.078573
      9          1           0       -0.288631   -2.166408    0.664623
     10          1           0       -1.301088   -2.012020   -0.772363
     11          1           0       -2.050240   -2.061591    0.835968
     12          1           0       -0.952014    0.121601    1.415020
     13          1           0       -0.162563    0.256348   -1.529573
     14          1           0       -0.674470    2.346265    0.010228
     15          1           0        0.683654    2.370492   -0.904938
     16          1           0        1.626784    1.197422    0.999790
     17          1           0       -2.678857    0.199464   -1.130443
     18          1           0       -2.532377    1.530810    0.032439
     19          1           0       -3.292748    0.020944    0.521971
 ---------------------------------------------------------------------

 SCF Done:  E(RB3LYP) =  -402.401211665     A.U. after    1 cycles

 The electronic state is 1-A.
 Alpha  occ. eigenvalues --  -19.19489 -19.14165 -14.36496 -10.31977 -10.25023
 Alpha  occ. eigenvalues --  -10.22070 -10.20071 -10.18470  -1.10255  -1.02172
 Alpha  occ. eigenvalues --   -0.92614  -0.81475  -0.71811  -0.69595  -0.61003
 Alpha  occ. eigenvalues --   -0.59658  -0.53681  -0.52083  -0.50096  -0.46120
 Alpha  occ. eigenvalues --   -0.45609  -0.43536  -0.43025  -0.40883  -0.39937
 Alpha  occ. eigenvalues --   -0.37891  -0.35907  -0.35795  -0.34980  -0.31586
 Alpha  occ. eigenvalues --   -0.30034  -0.26911
 Alpha virt. eigenvalues --   -0.01692  -0.00381   0.00919   0.01870   0.02306
 Alpha virt. eigenvalues --    0.04661   0.05260   0.05452   0.06113   0.06835
 Alpha virt. eigenvalues --    0.08683   0.09122   0.09284   0.09756   0.10811

 Mulliken charges:
               1
     1  C   -0.647809
     2  C   -0.085019
     3  C   -0.008545
     4  N   -0.949711
     5  C    0.420482
     6  O   -0.553832
     7  O   -0.441922
     8  C   -0.707933
     9  H    0.233248
    10  H    0.222230
    11  H    0.198775
    12  H    0.204615
    13  H    0.214446
    14  H    0.377438
    15  H    0.401258
    16  H    0.508955
    17  H    0.218572
    18  H    0.178423
    19  H    0.216331
 Sum of Mulliken charges =   0.00000

 Dipole moment (field-independent basis, Debye):
    X=             -3.9682    Y=              3.6441    Z=             -0.2450  Tot=              5.3932
 Quadrupole moment (field-independent basis, Debye-Ang):
   XX=            -57.2903   YY=            -48.9754   ZZ=            -50.1749
   XY=              4.7562   XZ=             -0.6531   YZ=             -3.6715

  Exact polarizability:  79.430  -1.442  78.410   1.244   3.327  64.944
 Approx polarizability:  98.761  -3.186 107.951   1.697  10.562  98.515

                      1                      2                      3
                      A                      A                      A
 Frequencies --     42.8834                78.3654               186.3633
 Red. masses --      2.6262                 5.0168                 2.4566
 Frc consts  --      0.0028                 0.0182                 0.0503
 IR Inten    --      2.0175                 1.4446                 4.0818

                      4                      5                      6
                      A                      A                      A
 Frequencies --    220.8397               243.2649               284.5192
 Red. masses --      1.2581                 1.2616                 1.2733
 Frc consts  --      0.0362                 0.0440                 0.0607
 IR Inten    --      3.4911                 2.7044                25.1901

                      7                      8                      9
                      A                      A                      A
 Frequencies --    324.1919               343.4555               378.3560
 Red. masses --      2.5455                 3.1779                 3.3177
 Frc consts  --      0.1576                 0.2209                 0.2798
 IR Inten    --      4.6427                 6.5038                 3.2894

                     10                     11                     12
                      A                      A                      A
 Frequencies --    408.0622               452.6058               547.4809
 Red. masses --      2.3560                 2.5753                 4.8854
 Frc consts  --      0.2311                 0.3108                 0.8628
 IR Inten    --      0.4716                 0.6707                 2.5629

                     13                     14                     15
                      A                      A                      A
 Frequencies --    671.6152               718.7978               828.2418
 Red. masses --      4.6292                 6.3430                 1.6231
 Frc consts  --      1.2303                 1.9309                 0.6560
 IR Inten    --     13.4381                 9.3332                44.0069

                     16                     17                     18
                      A                      A                      A
 Frequencies --    854.5381               860.2782               930.2655
 Red. masses --      1.6220                 1.9831                 1.9588
 Frc consts  --      0.6978                 0.8647                 0.9988
 IR Inten    --     58.1732                14.6556                39.7457

                     19                     20                     21
                      A                      A                      A
 Frequencies --    947.1674               958.5034               982.0534
 Red. masses --      1.5378                 1.3492                 1.5138
 Frc consts  --      0.8128                 0.7303                 0.8602
 IR Inten    --     80.5723                15.0877                 0.7610

                     22                     23                     24
                      A                      A                      A
 Frequencies --   1069.5673              1094.8604              1141.8789
 Red. masses --      3.3748                 1.3986                 2.2475
 Frc consts  --      2.2746                 0.9878                 1.7266
 IR Inten    --     10.9318                29.2267                 0.9367

                     25                     26                     27
                      A                      A                      A
 Frequencies --   1199.6157              1211.3715              1267.1493
 Red. masses --      1.7461                 2.4621                 1.5534
 Frc consts  --      1.4805                 2.1287                 1.4695
 IR Inten    --      5.4982                10.5423                 2.4891

                     28                     29                     30
                      A                      A                      A
 Frequencies --   1327.1106              1338.5034              1367.7414
 Red. masses --      1.3782                 1.2853                 1.4342
 Frc consts  --      1.4301                 1.3567                 1.5808
 IR Inten    --      9.8563                15.8620                 0.9790

                     31                     32                     33
                      A                      A                      A
 Frequencies --   1393.9842              1412.6932              1435.1346
 Red. masses --      1.3512                 1.6066                 1.2257
 Frc consts  --      1.5469                 1.8891                 1.4873
 IR Inten    --      7.9791               395.1609                 4.6308

                     34                     35                     36
                      A                      A                      A
 Frequencies --   1457.1951              1506.6447              1520.1820
 Red. masses --      1.2038                 1.0476                 1.0422
 Frc consts  --      1.5060                 1.4011                 1.4190
 IR Inten    --      8.1580                 0.2730                 3.5076

                     37                     38                     39
                      A                      A                      A
 Frequencies --   1527.6565              1540.6660              1696.5562
 Red. masses --      1.0578                 1.0443                 1.0887
 Frc consts  --      1.4545                 1.4605                 1.8463
 IR Inten    --      5.5730                18.3914                43.0041

                     40                     41                     42
                      A                      A                      A
 Frequencies --   1843.8743              3016.8533              3036.6954
 Red. masses --      9.4195                 1.0826                 1.0405
 Frc consts  --     18.8687                 5.8053                 5.6532
 IR Inten    --    308.3586                 5.0888                26.8228

                     43                     44                     45
                      A                      A                      A
 Frequencies --   3040.5218              3050.7023              3097.4768
 Red. masses --      1.0798                 1.0400                 1.1013
 Frc consts  --      5.8814                 5.7027                 6.2253
 IR Inten    --     27.7099                27.6546                44.7882

                     46                     47                     48
                      A                      A                      A
 Frequencies --   3106.8252              3113.4135              3144.4827
 Red. masses --      1.1020                 1.1010                 1.0993
 Frc consts  --      6.2671                 6.2881                 6.4040
 IR Inten    --      2.2053                58.4594                15.4175

                     49                     50                     51
                      A                      A                      A
 Frequencies --   3430.2310              3506.3803              3594.2543
 Red. masses --      1.0645                 1.0518                 1.0923
 Frc consts  --      7.3795                 7.6192                 8.3137
 IR Inten    --    208.1920                 0.8709                 9.5623

 - Thermochemistry -
 -------------------
 Temperature   298.150 Kelvin.  Pressure   1.00000 Atm.
 Atom     1 has atomic number  6 and mass  12.00000

 Molecular mass:   117.07898 amu.
 Principal axes and moments of inertia in atomic units:
                           1         2         3
     Eigenvalues --   640.159241120.110141523.37292
           X            0.99941   0.03425   0.00040
           Y           -0.03423   0.99909  -0.02552
           Z           -0.00127   0.02549   0.99967
 This molecule is an asymmetric top.
 Rotational symmetry number  1.
 Warning -- assumption of classical behavior for rotation
           may cause significant error
 Rotational temperatures (Kelvin)      0.13530     0.07733     0.05686
 Rotational constants (GHZ):           2.81921     1.61122     1.18470
 Zero-point vibrational energy     435154.0 (Joules/Mol)
                                  104.00431 (Kcal/Mol)
 Warning -- explicit consideration of  12 degrees of freedom as
           vibrations may cause significant error
 Vibrational temperatures:     61.70   112.75   268.14   317.74   350.00
          (Kelvin)            409.36   466.44   494.16   544.37   587.11
                              651.20   787.70   966.30  1034.19  1191.66
                             1229.49  1237.75  1338.44  1362.76  1379.07
                             1412.96  1538.87  1575.26  1642.91  1725.98
                             1742.89  1823.15  1909.42  1925.81  1967.87
                             2005.63  2032.55  2064.84  2096.58  2167.73
                             2187.20  2197.96  2216.67  2440.97  2652.92
                             4340.58  4369.13  4374.63  4389.28  4456.58
                             4470.03  4479.51  4524.21  4935.34  5044.90
                             5171.33

 Zero-point correction=                           0.165741 (Hartree/Particle)
 Thermal correction to Energy=                    0.174892
 Thermal correction to Enthalpy=                  0.175837
 Thermal correction to Gibbs Free Energy=         0.131602
 Sum of electronic and zero-point Energies=           -402.235470
 Sum of electronic and thermal Energies=              -402.226319
 Sum of electronic and thermal Enthalpies=            -402.225375
 Sum of electronic and thermal Free Energies=         -402.269610

                     E (Thermal)             CV                S
                      KCal/Mol        Cal/Mol-Kelvin    Cal/Mol-Kelvin
 Total                  109.747             33.375             93.100
 Electronic               0.000              0.000              0.000
 Translational            0.889              2.981             40.188
 Rotational               0.889              2.981             28.481
 Vibrational            107.969             27.414             24.431
 Vibration     1          0.595              1.980              5.121
 Vibration     2          0.600              1.964              3.931
 Vibration     3          0.632              1.859              2.264
 Vibration     4          0.648              1.809              1.952
 Vibration     5          0.659              1.774              1.779
 Vibration     6          0.683              1.702              1.506
 Vibration     7          0.709              1.627              1.289
 Vibration     8          0.722              1.589              1.196
 Vibration     9          0.749              1.516              1.046
 Vibration    10          0.773              1.453              0.933
 Vibration    11          0.811              1.355              0.788
 Vibration    12          0.903              1.145              0.549

                           ! Non-Optimized Parameters !
 Normal termination of Gaussian 16 at Mon Sep 18 05:48:58 2023.
