 Gaussian 16, Revision B.01,
 Gaussian 16:  EM64L-G16RevB.01 20-Dec-2017

 ----------------------------------------------------------------------
 # opt freq b3lyp/6-31+g(d) empiricaldispersion=gd3 scf=maxcycle=1000 v
 olume
 ----------------------------------------------------------------------

 -------------------
 Title Card Required
 -------------------
 Symbolic Z-matrix:
 Charge =  0 Multiplicity = 1

 SCF Done:  E(RB3LYP) =  -230.260229512     A.U. after    9 cycles
 Optimization completed.
    -- Stationary point found.
 Normal termination of Gaussian 16 at Mon Sep 18 06:16:52 2023.

 ---------------------------------------------------------------------
 #N Geom=AllCheck Guess=TCheck SCRF=Check GenChk RB3LYP/6-31+G(d) Freq
 ---------------------------------------------------------------------

 Structure from the checkpoint file:  "molecule_19-volume.chk"
 -------------------
 Title Card Required
 -------------------
 Charge =  0 Multiplicity = 1

                         Standard orientation:
 ---------------------------------------------------------------------
 Center     Atomic      Atomic             Coordinates (Angstroms)
 Number     Number       Type             X           Y           Z
 ---------------------------------------------------------------------
      1          6           0       -0.237693    0.721947    0.000101
      2          1           0        0.152350    1.232794    0.892321
      3          1           0        0.152056    1.232948   -0.892158
      4          6           0        0.237693   -0.721947   -0.000101
      5          1           0       -0.152350   -1.232794   -0.892321
      6          1           0       -0.152056   -1.232948    0.892158
      7          8           0        1.667271   -0.684371   -0.000333
      8          1           0        2.009342   -1.590281   -0.000463
      9          8           0       -1.667271    0.684371    0.000333
     10          1           0       -2.009342    1.590281    0.000463
 ---------------------------------------------------------------------

 SCF Done:  E(RB3LYP) =  -230.260229512     A.U. after    1 cycles

 The electronic state is 1-AG.
 Alpha  occ. eigenvalues --  -19.16434 -19.16434 -10.23888 -10.23864  -1.03520
 Alpha  occ. eigenvalues --   -1.02465  -0.74754  -0.61544  -0.54614  -0.49090
 Alpha  occ. eigenvalues --   -0.48892  -0.42245  -0.40426  -0.36620  -0.33553
 Alpha  occ. eigenvalues --   -0.28509  -0.28360
 Alpha virt. eigenvalues --   -0.00566   0.00230   0.03637   0.04732   0.06424
 Alpha virt. eigenvalues --    0.07326   0.07851   0.13026   0.14891   0.16025
 Alpha virt. eigenvalues --    0.16313   0.18370   0.19924   0.20664   0.21056

 Mulliken charges:
               1
     1  C   -0.164440
     2  H    0.189504
     3  H    0.189504
     4  C   -0.164440
     5  H    0.189504
     6  H    0.189504
     7  O   -0.682673
     8  H    0.468104
     9  O   -0.682673
    10  H    0.468104
 Sum of Mulliken charges =   0.00000

 Dipole moment (field-independent basis, Debye):
    X=              0.0000    Y=              0.0000    Z=              0.0000  Tot=              0.0000
 Quadrupole moment (field-independent basis, Debye-Ang):
   XX=            -28.9419   YY=            -17.4807   ZZ=            -26.0420
   XY=             -6.0315   XZ=              0.0000   YZ=              0.0017

  Exact polarizability:  37.200  -1.984  34.071  -0.001   0.001  30.068
 Approx polarizability:  45.021  -0.035  42.075  -0.001   0.000  39.063

                      1                      2                      3
                     AU                     AG                     AU
 Frequencies --    125.2554               240.8948               254.5297
 Red. masses --      3.4218                 1.1167                 1.0382
 Frc consts  --      0.0316                 0.0382                 0.0396
 IR Inten    --     34.8022                 0.0000               281.5221

                      4                      5                      6
                     AU                     AG                     AU
 Frequencies --    301.2695               479.1317               848.4355
 Red. masses --      3.3219                 6.9001                 1.0971
 Frc consts  --      0.1776                 0.9333                 0.4653
 IR Inten    --     23.5823                 0.0000                 2.2972

                      7                      8                      9
                     AG                     AU                     AG
 Frequencies --    987.8257              1059.2589              1073.2903
 Red. masses --      2.1877                 9.0430                 4.4410
 Frc consts  --      1.2577                 5.9781                 3.0141
 IR Inten    --      0.0000               229.3143                 0.0000

                     10                     11                     12
                     AG                     AU                     AU
 Frequencies --   1162.2828              1195.6954              1232.5664
 Red. masses --      1.5361                 1.0395                 1.1265
 Frc consts  --      1.2227                 0.8756                 1.0084
 IR Inten    --      0.0000               100.3180                 1.1123

                     13                     14                     15
                     AG                     AG                     AU
 Frequencies --   1294.1286              1314.4986              1408.8808
 Red. masses --      1.2698                 1.1018                 1.3288
 Frc consts  --      1.2530                 1.1217                 1.5540
 IR Inten    --      0.0000                 0.0000                 5.8029

                     16                     17                     18
                     AG                     AG                     AU
 Frequencies --   1488.4069              1541.6245              1548.1398
 Red. masses --      1.5699                 1.0874                 1.0886
 Frc consts  --      2.0491                 1.5226                 1.5372
 IR Inten    --      0.0000                 0.0000                 6.8152

                     19                     20                     21
                     AG                     AU                     AG
 Frequencies --   3013.2443              3017.7075              3040.8878
 Red. masses --      1.0550                 1.0544                 1.1073
 Frc consts  --      5.6437                 5.6572                 6.0325
 IR Inten    --      0.0000               113.3129                 0.0000

                     22                     23                     24
                     AU                     AG                     AU
 Frequencies --   3069.4166              3772.7942              3773.2985
 Red. masses --      1.1124                 1.0670                 1.0669
 Frc consts  --      6.1750                 8.9480                 8.9500
 IR Inten    --     97.0827                 0.0000                61.8738

 - Thermochemistry -
 -------------------
 Temperature   298.150 Kelvin.  Pressure   1.00000 Atm.
 Atom     1 has atomic number  6 and mass  12.00000

 Molecular mass:    62.03678 amu.
 Principal axes and moments of inertia in atomic units:
                           1         2         3
     Eigenvalues --    59.65916 453.31707 490.05512
           X            0.87819   0.47831   0.00016
           Y           -0.47831   0.87819  -0.00009
           Z           -0.00019   0.00000   1.00000
 This molecule is an asymmetric top.
 Rotational symmetry number  1.
 Rotational temperatures (Kelvin)      1.45181     0.19107     0.17674
 Rotational constants (GHZ):          30.25086     3.98119     3.68273
 Zero-point vibrational energy     222765.4 (Joules/Mol)
                                   53.24221 (Kcal/Mol)
 Warning -- explicit consideration of   5 degrees of freedom as
           vibrations may cause significant error
 Vibrational temperatures:    180.21   346.59   366.21   433.46   689.36
          (Kelvin)           1220.71  1421.26  1524.04  1544.23  1672.27
                             1720.34  1773.39  1861.96  1891.27  2027.07
                             2141.49  2218.05  2227.43  4335.39  4341.81
                             4375.16  4416.21  5428.21  5428.93

 Zero-point correction=                           0.084847 (Hartree/Particle)
 Thermal correction to Energy=                    0.090260
 Thermal correction to Enthalpy=                  0.091204
 Thermal correction to Gibbs Free Energy=         0.057151
 Sum of electronic and zero-point Energies=           -230.175383
 Sum of electronic and thermal Energies=              -230.169970
 Sum of electronic and thermal Enthalpies=            -230.169026
 Sum of electronic and thermal Free Energies=         -230.203078

                     E (Thermal)             CV                S
                      KCal/Mol        Cal/Mol-Kelvin    Cal/Mol-Kelvin
 Total                   56.639             17.200             71.670
 Electronic               0.000              0.000              0.000
 Translational            0.889              2.981             38.295
 Rotational               0.889              2.981             24.098
 Vibrational             54.861             11.238              9.277
 Vibration     1          0.610              1.928              3.018
 Vibration     2          0.658              1.778              1.796
 Vibration     3          0.665              1.755              1.699
 Vibration     4          0.693              1.671              1.410
 Vibration     5          0.836              1.296              0.712

 Optimization completed.
    -- Stationary point found.
 Normal termination of Gaussian 16 at Mon Sep 18 06:16:59 2023.
