 Gaussian 16, Revision B.01,
 Gaussian 16:  EM64L-G16RevB.01 20-Dec-2017

 ---------------------------------------------------------
 # opt freq b3lyp/6-31+g(d) empiricaldispersion=gd3 volume
 ---------------------------------------------------------

 -------------------
 Title Card Required
 -------------------
 Symbolic Z-matrix:
 Charge =  0 Multiplicity = 1

 SCF Done:  E(RB3LYP) =  -417.111462025     A.U. after   12 cycles
 Optimization completed.
    -- Stationary point found.
 Normal termination of Gaussian 16 at Tue Sep 19 05:36:34 2023.

 ---------------------------------------------------------------------
 #N Geom=AllCheck Guess=TCheck SCRF=Check GenChk RB3LYP/6-31+G(d) Freq
 ---------------------------------------------------------------------

 Structure from the checkpoint file:  "MOLECULE5-volume.chk"
 -------------------
 Title Card Required
 -------------------
 Charge =  0 Multiplicity = 1

                         Standard orientation:
 ---------------------------------------------------------------------
 Center     Atomic      Atomic             Coordinates (Angstroms)
 Number     Number       Type             X           Y           Z
 ---------------------------------------------------------------------
      1          6           0        0.712475    0.201459   -0.000011
      2          6           0       -0.712471   -0.201429   -0.000003
      3          6           0       -1.126617   -1.649347   -0.000018
      4          1           0       -0.259952   -2.309079    0.000014
      5          1           0       -1.747859   -1.855455    0.879053
      6          1           0       -1.747777   -1.855455   -0.879151
      7          6           0        1.126652    1.649372   -0.000029
      8          1           0        0.259997    2.309119   -0.000273
      9          1           0        1.747636    1.855553    0.879214
     10          1           0        1.748076    1.855405   -0.878987
     11          7           0       -1.560658    0.771696    0.000016
     12          7           0        1.560643   -0.771672    0.000006
     13          8           0       -2.881410    0.297853    0.000014
     14          1           0       -3.400750    1.117369    0.000022
     15          8           0        2.881384   -0.297918    0.000025
     16          1           0        3.400716   -1.117437    0.000005
 ---------------------------------------------------------------------

 SCF Done:  E(RB3LYP) =  -417.111462025     A.U. after    1 cycles

 The electronic state is 1-A.
 Alpha  occ. eigenvalues --  -19.20911 -19.20910 -14.39644 -14.39644 -10.24526
 Alpha  occ. eigenvalues --  -10.24496 -10.18793 -10.18793  -1.09775  -1.09598
 Alpha  occ. eigenvalues --   -0.90619  -0.85804  -0.73584  -0.71971  -0.63995
 Alpha  occ. eigenvalues --   -0.55256  -0.50699  -0.50048  -0.47103  -0.46651
 Alpha  occ. eigenvalues --   -0.45996  -0.43219  -0.41716  -0.40007  -0.39188
 Alpha  occ. eigenvalues --   -0.38822  -0.37238  -0.30291  -0.29498  -0.28697
 Alpha  occ. eigenvalues --   -0.24431
 Alpha virt. eigenvalues --   -0.04947   0.00151   0.00984   0.02688   0.04561
 Alpha virt. eigenvalues --    0.04615   0.05541   0.05977   0.06760   0.07686
 Alpha virt. eigenvalues --    0.08029   0.09044   0.09843   0.10693   0.12359

 Mulliken charges:
               1
     1  C    0.431442
     2  C    0.431415
     3  C   -0.868488
     4  H    0.245133
     5  H    0.236945
     6  H    0.236944
     7  C   -0.868503
     8  H    0.245131
     9  H    0.236942
    10  H    0.236943
    11  N   -0.454693
    12  N   -0.454727
    13  O   -0.304690
    14  H    0.477424
    15  O   -0.304648
    16  H    0.477428
 Sum of Mulliken charges =   0.00000

 Dipole moment (field-independent basis, Debye):
    X=              0.0003    Y=             -0.0001    Z=             -0.0001  Tot=              0.0003
 Quadrupole moment (field-independent basis, Debye-Ang):
   XX=            -41.0378   YY=            -45.0360   ZZ=            -49.1948
   XY=             -5.7724   XZ=             -0.0002   YZ=              0.0001

  Exact polarizability: 110.463 -10.621  74.867   0.000   0.000  48.546
 Approx polarizability: 166.119 -33.177 109.845   0.000   0.001  69.915

                      1                      2                      3
                      A                      A                      A
 Frequencies --     64.3548               113.1433               125.7594
 Red. masses --      3.3179                 1.2080                 1.0255
 Frc consts  --      0.0081                 0.0091                 0.0096
 IR Inten    --      0.2148                 0.2038                 0.0000

                      4                      5                      6
                      A                      A                      A
 Frequencies --    195.0377               210.0147               313.6696
 Red. masses --      3.3237                 4.9409                 3.2451
 Frc consts  --      0.0745                 0.1284                 0.1881
 IR Inten    --      2.3518                 3.7175                 0.0000

                      7                      8                      9
                      A                      A                      A
 Frequencies --    344.0800               347.6834               418.0527
 Red. masses --      3.0481                 7.2636                 1.4093
 Frc consts  --      0.2126                 0.5173                 0.1451
 IR Inten    --      5.3993                 0.0000               181.7959

                     10                     11                     12
                      A                      A                      A
 Frequencies --    433.8354               452.2798               473.8421
 Red. masses --      9.8436                 1.1808                 4.2811
 Frc consts  --      1.0916                 0.1423                 0.5663
 IR Inten    --      0.0000                 0.0000                 0.0000

                     13                     14                     15
                      A                      A                      A
 Frequencies --    532.7188               602.6396               695.7234
 Red. masses --      2.2992                 2.9153                 3.7922
 Frc consts  --      0.3844                 0.6238                 1.0815
 IR Inten    --     84.3765                 0.0000                64.9294

                     16                     17                     18
                      A                      A                      A
 Frequencies --    785.1009               939.7205               994.4102
 Red. masses --      3.2672                 5.9355                 2.9419
 Frc consts  --      1.1865                 3.0882                 1.7140
 IR Inten    --      0.0000               203.6020                 0.0000

                     19                     20                     21
                      A                      A                      A
 Frequencies --   1022.7048              1059.8093              1070.4555
 Red. masses --      2.5895                 1.4686                 1.6145
 Frc consts  --      1.5958                 0.9718                 1.0900
 IR Inten    --    199.7294                 1.6877                 0.0000

                     22                     23                     24
                      A                      A                      A
 Frequencies --   1071.2001              1144.0226              1333.2522
 Red. masses --      2.4700                 2.4720                 1.9845
 Frc consts  --      1.6699                 1.9062                 2.0784
 IR Inten    --      0.0001                41.4515                 0.0000

                     25                     26                     27
                      A                      A                      A
 Frequencies --   1384.9176              1424.3777              1424.6215
 Red. masses --      1.2519                 1.3702                 1.2180
 Frc consts  --      1.4147                 1.6379                 1.4565
 IR Inten    --    173.7266                 0.0009                21.9360

                     28                     29                     30
                      A                      A                      A
 Frequencies --   1428.7751              1501.2306              1509.7827
 Red. masses --      1.5216                 1.0596                 1.0451
 Frc consts  --      1.8301                 1.4070                 1.4035
 IR Inten    --      0.0000                18.5874                 0.0000

                     31                     32                     33
                      A                      A                      A
 Frequencies --   1510.2086              1512.2534              1676.6690
 Red. masses --      1.0428                 1.2065                 6.8402
 Frc consts  --      1.4012                 1.6257                11.3296
 IR Inten    --     19.3446                 0.0000                 4.3455

                     34                     35                     36
                      A                      A                      A
 Frequencies --   1688.9562              3060.5667              3060.5753
 Red. masses --      6.8771                 1.0396                 1.0395
 Frc consts  --     11.5582                 5.7374                 5.7368
 IR Inten    --      0.0000                15.3307                 0.3551

                     37                     38                     39
                      A                      A                      A
 Frequencies --   3111.4806              3111.6419              3184.6966
 Red. masses --      1.0997                 1.0997                 1.0995
 Frc consts  --      6.2726                 6.2732                 6.5703
 IR Inten    --     17.4600                 0.0031                 5.2873

                     40                     41                     42
                      A                      A                      A
 Frequencies --   3184.7928              3756.9699              3758.3837
 Red. masses --      1.0997                 1.0676                 1.0678
 Frc consts  --      6.5716                 8.8786                 8.8870
 IR Inten    --      0.0186               232.5594                 0.0077

 - Thermochemistry -
 -------------------
 Temperature   298.150 Kelvin.  Pressure   1.00000 Atm.
 Atom     1 has atomic number  6 and mass  12.00000

 Molecular mass:   116.05858 amu.
 Principal axes and moments of inertia in atomic units:
                           1         2         3
     Eigenvalues --   413.871111483.679841875.29990
           X            0.99976   0.02177   0.00000
           Y           -0.02177   0.99976   0.00000
           Z            0.00000   0.00000   1.00000
 This molecule is an asymmetric top.
 Rotational symmetry number  1.
 Rotational temperatures (Kelvin)      0.20928     0.05838     0.04619
 Rotational constants (GHZ):           4.36064     1.21640     0.96237
 Zero-point vibrational energy     335160.2 (Joules/Mol)
                                   80.10521 (Kcal/Mol)
 Warning -- explicit consideration of  14 degrees of freedom as
           vibrations may cause significant error
 Vibrational temperatures:     92.59   162.79   180.94   280.62   302.16
          (Kelvin)            451.30   495.05   500.24   601.48   624.19
                              650.73   681.75   766.46   867.06  1000.99
                             1129.59  1352.05  1430.73  1471.44  1524.83
                             1540.15  1541.22  1645.99  1918.25  1992.59
                             2049.36  2049.71  2055.69  2159.94  2172.24
                             2172.85  2175.80  2412.35  2430.03  4403.47
                             4403.49  4476.73  4476.96  4582.07  4582.21
                             5405.44  5407.48

 Zero-point correction=                           0.127656 (Hartree/Particle)
 Thermal correction to Energy=                    0.136857
 Thermal correction to Enthalpy=                  0.137801
 Thermal correction to Gibbs Free Energy=         0.093753
 Sum of electronic and zero-point Energies=           -416.983806
 Sum of electronic and thermal Energies=              -416.974605
 Sum of electronic and thermal Enthalpies=            -416.973661
 Sum of electronic and thermal Free Energies=         -417.017709

                     E (Thermal)             CV                S
                      KCal/Mol        Cal/Mol-Kelvin    Cal/Mol-Kelvin
 Total                   85.879             32.755             92.706
 Electronic               0.000              0.000              0.000
 Translational            0.889              2.981             40.162
 Rotational               0.889              2.981             28.534
 Vibrational             84.101             26.794             24.010
 Vibration     1          0.597              1.971              4.319
 Vibration     2          0.607              1.939              3.214
 Vibration     3          0.611              1.927              3.010
 Vibration     4          0.636              1.847              2.179
 Vibration     5          0.642              1.826              2.044
 Vibration     6          0.702              1.648              1.343
 Vibration     7          0.723              1.587              1.193
 Vibration     8          0.725              1.580              1.177
 Vibration     9          0.781              1.431              0.899
 Vibration    10          0.795              1.396              0.846
 Vibration    11          0.811              1.356              0.789
 Vibration    12          0.831              1.308              0.727
 Vibration    13          0.888              1.178              0.581
 Vibration    14          0.961              1.026              0.445

 Optimization completed.
    -- Stationary point found.
 Normal termination of Gaussian 16 at Tue Sep 19 05:37:20 2023.
