 Gaussian 16, Revision B.01,
 Gaussian 16:  EM64L-G16RevB.01 20-Dec-2017

 ----------------------------------------------------------------------
 # opt freq b3lyp/6-31+g(d) empiricaldispersion=gd3 scf=maxcycle=1000 v
 olume
 ----------------------------------------------------------------------

 -------------------
 Title Card Required
 -------------------
 Symbolic Z-matrix:
 Charge =  0 Multiplicity = 1

 SCF Done:  E(RB3LYP) =  -571.645655860     A.U. after   13 cycles
 Optimization completed.
    -- Stationary point found.
 Normal termination of Gaussian 16 at Mon Sep 18 05:43:58 2023.

 ---------------------------------------------------------------------
 #N Geom=AllCheck Guess=TCheck SCRF=Check GenChk RB3LYP/6-31+G(d) Freq
 ---------------------------------------------------------------------

 Structure from the checkpoint file:  "molecule_4-volume.chk"
 -------------------
 Title Card Required
 -------------------
 Charge =  0 Multiplicity = 1

                         Standard orientation:
 ---------------------------------------------------------------------
 Center     Atomic      Atomic             Coordinates (Angstroms)
 Number     Number       Type             X           Y           Z
 ---------------------------------------------------------------------
      1          6           0       -3.485862   -0.371631   -0.000007
      2          6           0       -2.830524    0.843208   -0.000006
      3          6           0       -1.417283    0.870204   -0.000003
      4          6           0       -0.729638   -0.379737    0.000000
      5          6           0       -2.707648   -1.549923   -0.000005
      6          6           0       -0.681175    2.102697   -0.000001
      7          6           0        0.729638   -0.379737    0.000000
      8          6           0        1.417283    0.870204    0.000004
      9          6           0        0.681175    2.102697    0.000003
     10          6           0        2.830524    0.843208    0.000007
     11          1           0        3.383584    1.780182    0.000010
     12          6           0        3.485862   -0.371631    0.000006
     13          6           0        2.707648   -1.549923    0.000004
     14          1           0       -1.235382    3.038783   -0.000002
     15          1           0       -4.570583   -0.431934   -0.000009
     16          1           0       -3.383584    1.780182   -0.000008
     17          1           0       -3.196147   -2.523705   -0.000004
     18          1           0        1.235382    3.038783    0.000006
     19          1           0        4.570583   -0.431934    0.000008
     20          1           0        3.196147   -2.523705    0.000001
     21          7           0       -1.384049   -1.564605   -0.000002
     22          7           0        1.384049   -1.564605    0.000000
 ---------------------------------------------------------------------

 SCF Done:  E(RB3LYP) =  -571.645655860     A.U. after    1 cycles

 The electronic state is 1-A.
 Alpha  occ. eigenvalues --  -14.33689 -14.33688 -10.23794 -10.23758 -10.23195
 Alpha  occ. eigenvalues --  -10.23195 -10.21954 -10.21954 -10.21895 -10.21894
 Alpha  occ. eigenvalues --  -10.21274 -10.21202 -10.21016 -10.21016  -0.96190
 Alpha  occ. eigenvalues --   -0.93940  -0.85833  -0.81790  -0.80971  -0.75779
 Alpha  occ. eigenvalues --   -0.75370  -0.66627  -0.65469  -0.63952  -0.61069
 Alpha  occ. eigenvalues --   -0.56460  -0.54270  -0.52258  -0.49666  -0.49366
 Alpha  occ. eigenvalues --   -0.47361  -0.45088  -0.43269  -0.43047  -0.42017
 Alpha  occ. eigenvalues --   -0.41624  -0.40827  -0.39361  -0.38061  -0.36333
 Alpha  occ. eigenvalues --   -0.34636  -0.30871  -0.30153  -0.26665  -0.25320
 Alpha  occ. eigenvalues --   -0.25003  -0.23966
 Alpha virt. eigenvalues --   -0.06413  -0.06241  -0.02147  -0.00094   0.00328
 Alpha virt. eigenvalues --    0.00694   0.01576   0.02865   0.03222   0.03890
 Alpha virt. eigenvalues --    0.04268   0.04344   0.05075   0.05692   0.06523

 Mulliken charges:
               1
     1  C   -0.515715
     2  C    0.063083
     3  C    1.072459
     4  C   -1.408507
     5  C    0.131556
     6  C    0.034766
     7  C   -1.408507
     8  C    1.072459
     9  C    0.034766
    10  C    0.063083
    11  H    0.189916
    12  C   -0.515715
    13  C    0.131556
    14  H    0.185574
    15  H    0.189685
    16  H    0.189916
    17  H    0.180710
    18  H    0.185574
    19  H    0.189685
    20  H    0.180710
    21  N   -0.123528
    22  N   -0.123528
 Sum of Mulliken charges =   0.00000

 Dipole moment (field-independent basis, Debye):
    X=              0.0000    Y=              3.4255    Z=              0.0000  Tot=              3.4255
 Quadrupole moment (field-independent basis, Debye-Ang):
   XX=            -60.3924   YY=            -79.2045   ZZ=            -85.1471
   XY=              0.0000   XZ=              0.0000   YZ=              0.0000

  Exact polarizability: 239.156   0.000 161.875   0.000   0.000  74.340
 Approx polarizability: 383.683   0.000 292.330   0.001   0.000 114.703

                      1                      2                      3
                      A                      A                      A
 Frequencies --     98.8971               105.2128               233.6309
 Red. masses --      4.8977                 4.7186                 3.5645
 Frc consts  --      0.0282                 0.0308                 0.1146
 IR Inten    --      5.7839                 0.0000                 3.5276

                      4                      5                      6
                      A                      A                      A
 Frequencies --    240.0628               241.5980               410.0486
 Red. masses --      4.9990                 5.5243                 3.8361
 Frc consts  --      0.1697                 0.1900                 0.3800
 IR Inten    --      0.0000                 3.9866                 0.0000

                      7                      8                      9
                      A                      A                      A
 Frequencies --    413.8925               441.2379               465.1489
 Red. masses --      6.9471                 3.9808                 6.4922
 Frc consts  --      0.7012                 0.4566                 0.8276
 IR Inten    --      1.9344                 0.0021                 0.3064

                     10                     11                     12
                      A                      A                      A
 Frequencies --    502.2206               522.9259               560.2992
 Red. masses --      3.2014                 4.9995                 7.5364
 Frc consts  --      0.4758                 0.8055                 1.3940
 IR Inten    --      0.6743                 0.7908                 0.0324

                     13                     14                     15
                      A                      A                      A
 Frequencies --    560.4811               611.5994               629.9237
 Red. masses --      3.0862                 3.6383                 8.0963
 Frc consts  --      0.5712                 0.8018                 1.8928
 IR Inten    --      0.0000                 0.0000                 6.6659

                     16                     17                     18
                      A                      A                      A
 Frequencies --    714.4250               738.4573               750.6337
 Red. masses --      6.9649                 6.2240                 3.4888
 Frc consts  --      2.0945                 1.9997                 1.1582
 IR Inten    --      2.4766                 4.0165                36.3924

                     19                     20                     21
                      A                      A                      A
 Frequencies --    773.3449               812.4114               841.4386
 Red. masses --      1.1955                 1.3016                 9.0848
 Frc consts  --      0.4213                 0.5062                 3.7898
 IR Inten    --     18.4223                 0.0000                 0.0000

                     22                     23                     24
                      A                      A                      A
 Frequencies --    854.6817               867.9283               895.1710
 Red. masses --      1.6671                 6.5591                 5.2557
 Frc consts  --      0.7175                 2.9112                 2.4814
 IR Inten    --     72.9734                 4.3377                 4.5572

                     25                     26                     27
                      A                      A                      A
 Frequencies --    962.2297               964.4213               978.3264
 Red. masses --      1.3483                 1.3898                 1.3442
 Frc consts  --      0.7355                 0.7616                 0.7580
 IR Inten    --      0.0000                 1.0964                 0.0000

                     28                     29                     30
                      A                      A                      A
 Frequencies --    995.3389               999.6249              1050.1863
 Red. masses --      1.3605                 1.3701                 5.2523
 Frc consts  --      0.7941                 0.8066                 3.4130
 IR Inten    --      1.4694                 0.0000                 2.3757

                     31                     32                     33
                      A                      A                      A
 Frequencies --   1061.9987              1097.3360              1121.6989
 Red. masses --      2.6175                 2.4972                 2.3205
 Frc consts  --      1.7394                 1.7716                 1.7203
 IR Inten    --      0.4302                 3.2328                10.7728

                     34                     35                     36
                      A                      A                      A
 Frequencies --   1171.2873              1180.1661              1230.2088
 Red. masses --      1.2552                 1.2824                 3.2268
 Frc consts  --      1.0146                 1.0523                 2.8773
 IR Inten    --      8.5020                 1.3316                 0.3389

                     37                     38                     39
                      A                      A                      A
 Frequencies --   1241.2730              1251.7128              1302.1023
 Red. masses --      1.5410                 1.8228                 1.8801
 Frc consts  --      1.3989                 1.6827                 1.8782
 IR Inten    --      0.2122                 0.5263                 1.0645

                     40                     41                     42
                      A                      A                      A
 Frequencies --   1333.3422              1354.1743              1386.9336
 Red. masses --      3.2763                 6.5758                 2.1788
 Frc consts  --      3.4318                 7.1048                 2.4693
 IR Inten    --      1.9903                 1.1520                 1.7549

                     43                     44                     45
                      A                      A                      A
 Frequencies --   1423.2273              1455.1981              1461.9993
 Red. masses --      3.9385                 1.8394                 2.0623
 Frc consts  --      4.7003                 2.2949                 2.5971
 IR Inten    --      0.0408                 2.5115                43.2544

                     46                     47                     48
                      A                      A                      A
 Frequencies --   1486.9672              1539.1458              1544.0062
 Red. masses --      2.6525                 3.2282                 3.8915
 Frc consts  --      3.4555                 4.5058                 5.4660
 IR Inten    --      1.0572                 7.8980                38.5243

                     49                     50                     51
                      A                      A                      A
 Frequencies --   1596.0393              1641.3731              1654.9973
 Red. masses --      6.2038                 5.6402                 6.1660
 Frc consts  --      9.3110                 8.9528                 9.9506
 IR Inten    --     15.8314                10.7405                11.4446

                     52                     53                     54
                      A                      A                      A
 Frequencies --   1664.1013              3161.2712              3161.7155
 Red. masses --      6.1142                 1.0891                 1.0893
 Frc consts  --      9.9758                 6.4129                 6.4159
 IR Inten    --      5.3130                21.6520                30.2069

                     55                     56                     57
                      A                      A                      A
 Frequencies --   3170.9379              3178.6891              3179.1386
 Red. masses --      1.0865                 1.0896                 1.0894
 Frc consts  --      6.4363                 6.4868                 6.4870
 IR Inten    --      1.2180                18.9458                 1.1502

                     58                     59                     60
                      A                      A                      A
 Frequencies --   3190.3649              3206.3825              3206.6535
 Red. masses --      1.0960                 1.0963                 1.0962
 Frc consts  --      6.5729                 6.6404                 6.6411
 IR Inten    --     34.0553                55.0750                 0.0092

 - Thermochemistry -
 -------------------
 Temperature   298.150 Kelvin.  Pressure   1.00000 Atm.
 Atom     1 has atomic number  6 and mass  12.00000

 Molecular mass:   180.06875 amu.
 Principal axes and moments of inertia in atomic units:
                           1         2         3
     Eigenvalues --  1115.874863122.851434238.72629
           X            1.00000   0.00000   0.00000
           Y            0.00000   1.00000   0.00000
           Z            0.00000   0.00000   1.00000
 This molecule is an asymmetric top.
 Rotational symmetry number  1.
 Warning -- assumption of classical behavior for rotation
           may cause significant error
 Rotational temperatures (Kelvin)      0.07762     0.02774     0.02043
 Rotational constants (GHZ):           1.61733     0.57791     0.42577
 Zero-point vibrational energy     447943.1 (Joules/Mol)
                                  107.06097 (Kcal/Mol)
 Warning -- explicit consideration of  14 degrees of freedom as
           vibrations may cause significant error
 Vibrational temperatures:    142.29   151.38   336.14   345.40   347.61
          (Kelvin)            589.97   595.50   634.84   669.25   722.58
                              752.37   806.15   806.41   879.96   906.32
                             1027.90  1062.48  1079.99  1112.67  1168.88
                             1210.64  1229.70  1248.76  1287.95  1384.43
                             1387.59  1407.59  1432.07  1438.24  1510.98
                             1527.98  1578.82  1613.87  1685.22  1698.00
                             1770.00  1785.91  1800.94  1873.43  1918.38
                             1948.35  1995.49  2047.71  2093.71  2103.49
                             2139.41  2214.49  2221.48  2296.34  2361.57
                             2381.17  2394.27  4548.36  4549.00  4562.27
                             4573.42  4574.07  4590.22  4613.27  4613.66

 Zero-point correction=                           0.170613 (Hartree/Particle)
 Thermal correction to Energy=                    0.179802
 Thermal correction to Enthalpy=                  0.180747
 Thermal correction to Gibbs Free Energy=         0.135891
 Sum of electronic and zero-point Energies=           -571.475043
 Sum of electronic and thermal Energies=              -571.465853
 Sum of electronic and thermal Enthalpies=            -571.464909
 Sum of electronic and thermal Free Energies=         -571.509765

                     E (Thermal)             CV                S
                      KCal/Mol        Cal/Mol-Kelvin    Cal/Mol-Kelvin
 Total                  112.828             38.617             94.406
 Electronic               0.000              0.000              0.000
 Translational            0.889              2.981             41.471
 Rotational               0.889              2.981             31.069
 Vibrational            111.050             32.655             21.866
 Vibration     1          0.604              1.950              3.476
 Vibration     2          0.605              1.945              3.355
 Vibration     3          0.654              1.789              1.851
 Vibration     4          0.657              1.779              1.802
 Vibration     5          0.658              1.777              1.791
 Vibration     6          0.774              1.448              0.926
 Vibration     7          0.777              1.440              0.913
 Vibration     8          0.801              1.380              0.823
 Vibration     9          0.823              1.327              0.751
 Vibration    10          0.858              1.245              0.653
 Vibration    11          0.878              1.199              0.603
 Vibration    12          0.916              1.117              0.523
 Vibration    13          0.916              1.117              0.523
 Vibration    14          0.971              1.007              0.430

 Optimization completed.
    -- Stationary point found.
 Normal termination of Gaussian 16 at Mon Sep 18 05:47:16 2023.
