 Gaussian 09, Revision D.01,
 Gaussian 09:  EM64W-G09RevD.01 13-Apr-2013

 --------------------------------------------------------------------
 # opt freq b3lyp/6-31+g(d) geom=connectivity empiricaldispersion=gd3
 --------------------------------------------------------------------

 -------------------
 Title Card Required
 -------------------
 Symbolic Z-matrix:
 Charge =  0 Multiplicity = 1

 SCF Done:  E(RB3LYP) =  -345.600053678     A.U. after   14 cycles
 SCF Done:  E(RB3LYP) =  -345.633168174     A.U. after   12 cycles
 SCF Done:  E(RB3LYP) =  -345.684890544     A.U. after   13 cycles
 SCF Done:  E(RB3LYP) =  -345.693536535     A.U. after   11 cycles
 SCF Done:  E(RB3LYP) =  -345.695057496     A.U. after   10 cycles
 SCF Done:  E(RB3LYP) =  -345.695088261     A.U. after    6 cycles
 SCF Done:  E(RB3LYP) =  -345.696770103     A.U. after   10 cycles
 SCF Done:  E(RB3LYP) =  -345.728039932     A.U. after   12 cycles
 SCF Done:  E(RB3LYP) =  -345.732376786     A.U. after   12 cycles
 SCF Done:  E(RB3LYP) =  -345.730872705     A.U. after   12 cycles
 SCF Done:  E(RB3LYP) =  -345.814649745     A.U. after   11 cycles
 SCF Done:  E(RB3LYP) =  -345.815576514     A.U. after   11 cycles
 SCF Done:  E(RB3LYP) =  -345.815759215     A.U. after   11 cycles
 SCF Done:  E(RB3LYP) =  -345.815819598     A.U. after   10 cycles
 SCF Done:  E(RB3LYP) =  -345.815866573     A.U. after    9 cycles
 SCF Done:  E(RB3LYP) =  -345.815892968     A.U. after   10 cycles
 SCF Done:  E(RB3LYP) =  -345.815897809     A.U. after    9 cycles
 SCF Done:  E(RB3LYP) =  -345.815898401     A.U. after    8 cycles
 SCF Done:  E(RB3LYP) =  -345.815898485     A.U. after    7 cycles
 Optimization completed.
    -- Stationary point found.
 Normal termination of Gaussian 09 at Thu Aug 24 16:15:34 2023.

 ---------------------------------------------------------------------
 #N Geom=AllCheck Guess=TCheck SCRF=Check GenChk RB3LYP/6-31+G(d) Freq
 ---------------------------------------------------------------------

 Structure from the checkpoint file:  "D:\Reaction optimization project\source code\DFT\opti\ligand\input\molecule_7.chk"
 -------------------
 Title Card Required
 -------------------
 Charge =  0 Multiplicity = 1

                         Standard orientation:
 ---------------------------------------------------------------------
 Center     Atomic      Atomic             Coordinates (Angstroms)
 Number     Number       Type             X           Y           Z
 ---------------------------------------------------------------------
      1          6           0       -0.671581   -1.067193   -1.668837
      2          6           0        0.152645    0.150711   -1.286475
      3          6           0        0.989401    0.097906    0.000000
      4          6           0        0.152645    0.150711    1.286475
      5          6           0       -0.671581   -1.067193    1.668837
      6          8           0        0.152645    1.152523    1.975304
      7          8           0        0.152645    1.152523   -1.975304
      8          1           0       -0.216740   -2.004527   -1.332449
      9          1           0       -0.811672   -1.081156   -2.752634
     10          1           0       -1.662947   -0.991595   -1.204038
     11          1           0        1.571192   -0.834089    0.000000
     12          1           0        1.660046    0.958624    0.000000
     13          1           0       -0.216740   -2.004527    1.332449
     14          1           0       -1.662947   -0.991595    1.204038
     15          1           0       -0.811672   -1.081156    2.752634
 ---------------------------------------------------------------------

 SCF Done:  E(RB3LYP) =  -345.815898485     A.U. after    1 cycles

 The electronic state is 1-A'.
 Alpha  occ. eigenvalues --  -19.16714 -19.16714 -10.30615 -10.30614 -10.21893
 Alpha  occ. eigenvalues --  -10.21340 -10.21339  -1.06760  -1.06317  -0.80922
 Alpha  occ. eigenvalues --   -0.76041  -0.73679  -0.58113  -0.54378  -0.49954
 Alpha  occ. eigenvalues --   -0.48704  -0.48272  -0.45288  -0.45089  -0.44598
 Alpha  occ. eigenvalues --   -0.42404  -0.40778  -0.39212  -0.37764  -0.37162
 Alpha  occ. eigenvalues --   -0.28168  -0.26377
 Alpha virt. eigenvalues --   -0.05971  -0.02875  -0.01270   0.01963   0.02019
 Alpha virt. eigenvalues --    0.03301   0.04953   0.05060   0.05765   0.06832
 Alpha virt. eigenvalues --    0.06880   0.09007   0.09248   0.09651   0.10592

 Mulliken charges:
               1
     1  C   -0.740156
     2  C    0.517432
     3  C   -0.658913
     4  C    0.517432
     5  C   -0.740156
     6  O   -0.380182
     7  O   -0.380182
     8  H    0.214110
     9  H    0.243907
    10  H    0.233690
    11  H    0.223898
    12  H    0.257415
    13  H    0.214110
    14  H    0.233690
    15  H    0.243907
 Sum of Mulliken charges =   0.00000

 Dipole moment (field-independent basis, Debye):
    X=             -0.3306    Y=             -4.8886    Z=              0.0000  Tot=              4.8998
 Quadrupole moment (field-independent basis, Debye-Ang):
   XX=            -39.8482   YY=            -46.8860   ZZ=            -50.2922
   XY=             -0.1332   XZ=              0.0000   YZ=              0.0000

  Exact polarizability:  53.451   6.074  66.335   0.000   0.000  74.390
 Approx polarizability:  73.406   4.165  99.426   0.000   0.000  98.427

 ******    2 imaginary frequencies (negative Signs) ******

                      1                      2                      3
                     A"                     A"                     A'
 Frequencies --    -69.9376               -22.6995                67.9447
 Red. masses --      1.0479                 3.8336                 4.0886
 Frc consts  --      0.0030                 0.0012                 0.0111
 IR Inten    --      0.1460                 2.1216                 3.4319

                      4                      5                      6
                     A'                     A'                     A"
 Frequencies --    137.2469               204.4390               324.0795
 Red. masses --      1.5007                 1.9316                 3.2381
 Frc consts  --      0.0167                 0.0476                 0.2004
 IR Inten    --      0.8456                 1.1475                 4.1559

                      7                      8                      9
                     A'                     A'                     A"
 Frequencies --    445.4894               477.2982               501.4127
 Red. masses --      2.1521                 3.2973                 2.8680
 Frc consts  --      0.2516                 0.4426                 0.4248
 IR Inten    --      5.2159                 6.0970                 0.4315

                     10                     11                     12
                     A"                     A'                     A'
 Frequencies --    551.3679               622.3050               750.2143
 Red. masses --      4.0200                 2.4975                 3.1510
 Frc consts  --      0.7201                 0.5699                 1.0449
 IR Inten    --     20.5175                 5.5078                 1.0517

                     13                     14                     15
                     A"                     A'                     A"
 Frequencies --    825.4459               889.8020               955.4963
 Red. masses --      3.4310                 1.6716                 1.8706
 Frc consts  --      1.3774                 0.7798                 1.0062
 IR Inten    --      5.5372                 2.8125                40.4986

                     16                     17                     18
                     A"                     A'                     A'
 Frequencies --    987.4109              1069.0031              1086.5905
 Red. masses --      1.3724                 1.6843                 2.0637
 Frc consts  --      0.7884                 1.1340                 1.4356
 IR Inten    --      0.0185                 0.9461                 0.4555

                     19                     20                     21
                     A"                     A"                     A'
 Frequencies --   1149.8702              1236.6787              1239.9879
 Red. masses --      1.6552                 1.7865                 4.0343
 Frc consts  --      1.2894                 1.6098                 3.6547
 IR Inten    --     33.4691               177.3148                88.1987

                     22                     23                     24
                     A"                     A"                     A'
 Frequencies --   1301.7324              1406.6943              1414.9711
 Red. masses --      1.3086                 1.2559                 1.2583
 Frc consts  --      1.3065                 1.4642                 1.4843
 IR Inten    --      5.6052                10.9207                59.0705

                     25                     26                     27
                     A"                     A'                     A"
 Frequencies --   1478.4264              1482.0856              1494.7911
 Red. masses --      1.0482                 1.0910                 1.0604
 Frc consts  --      1.3499                 1.4120                 1.3959
 IR Inten    --     22.9501                 2.2489                 2.2540

                     28                     29                     30
                     A'                     A'                     A"
 Frequencies --   1501.7308              1511.9164              1781.1298
 Red. masses --      1.0499                 1.0583                 9.5589
 Frc consts  --      1.3950                 1.4254                17.8670
 IR Inten    --      6.3131                33.7701               201.0350

                     31                     32                     33
                     A'                     A'                     A"
 Frequencies --   1806.1291              3047.4191              3049.7056
 Red. masses --     11.2477                 1.0630                 1.0392
 Frc consts  --     21.6178                 5.8162                 5.6944
 IR Inten    --    237.0015                 3.0235                 1.1309

                     34                     35                     36
                     A'                     A"                     A'
 Frequencies --   3057.3280              3114.7555              3120.6358
 Red. masses --      1.0403                 1.0966                 1.0974
 Frc consts  --      5.7290                 6.2683                 6.2966
 IR Inten    --      7.8397                 0.7603                20.5323

                     37                     38                     39
                     A"                     A'                     A'
 Frequencies --   3155.3503              3156.0746              3158.3698
 Red. masses --      1.1038                 1.1010                 1.1008
 Frc consts  --      6.4748                 6.4612                 6.4695
 IR Inten    --     13.3255                 2.1158                 4.2306

 - Thermochemistry -
 -------------------
 Temperature   298.150 Kelvin.  Pressure   1.00000 Atm.
 Atom     1 has atomic number  6 and mass  12.00000

 Molecular mass:   100.05243 amu.
 Principal axes and moments of inertia in atomic units:
                           1         2         3
     Eigenvalues --   428.56551 979.554271257.06195
           X            0.00000   0.43850   0.89873
           Y            0.00000   0.89873  -0.43850
           Z            1.00000   0.00000   0.00000
 This molecule is an asymmetric top.
 Rotational symmetry number  1.
 Rotational temperatures (Kelvin)      0.20210     0.08842     0.06890
 Rotational constants (GHZ):           4.21112     1.84241     1.43568
    2 imaginary frequencies ignored.
 Zero-point vibrational energy     320367.9 (Joules/Mol)
                                   76.56976 (Kcal/Mol)
 Warning -- explicit consideration of   8 degrees of freedom as
           vibrations may cause significant error
 Vibrational temperatures:     97.76   197.47   294.14   466.28   640.96
          (Kelvin)            686.72   721.42   793.29   895.36  1079.39
                             1187.63  1280.23  1374.74  1420.66  1538.06
                             1563.36  1654.40  1779.30  1784.06  1872.90
                             2023.92  2035.83  2127.12  2132.39  2150.67
                             2160.65  2175.31  2562.65  2598.61  4384.55
                             4387.84  4398.81  4481.43  4489.89  4539.84
                             4540.88  4544.18

 Zero-point correction=                           0.122022 (Hartree/Particle)
 Thermal correction to Energy=                    0.128793
 Thermal correction to Enthalpy=                  0.129737
 Thermal correction to Gibbs Free Energy=         0.090666
 Sum of electronic and zero-point Energies=           -345.693877
 Sum of electronic and thermal Energies=              -345.687106
 Sum of electronic and thermal Enthalpies=            -345.686162
 Sum of electronic and thermal Free Energies=         -345.725233

                     E (Thermal)             CV                S
                      KCal/Mol        Cal/Mol-Kelvin    Cal/Mol-Kelvin
 Total                   80.819             24.016             82.232
 Electronic               0.000              0.000              0.000
 Translational            0.889              2.981             39.720
 Rotational               0.889              2.981             27.759
 Vibrational             79.041             18.055             14.754
 Vibration     1          0.598              1.969              4.212
 Vibration     2          0.614              1.916              2.842
 Vibration     3          0.640              1.834              2.093
 Vibration     4          0.709              1.627              1.289
 Vibration     5          0.805              1.371              0.810
 Vibration     6          0.834              1.300              0.717
 Vibration     7          0.857              1.247              0.655
 Vibration     8          0.907              1.137              0.541

 Normal termination of Gaussian 09 at Thu Aug 24 16:16:22 2023.
