 Gaussian 09, Revision D.01,
 Gaussian 09:  EM64W-G09RevD.01 13-Apr-2013

 --------------------------------------------------------------------
 # opt freq b3lyp/6-31+g(d) geom=connectivity empiricaldispersion=gd3
 --------------------------------------------------------------------

 -------------------
 Title Card Required
 -------------------
 Symbolic Z-matrix:
 Charge =  0 Multiplicity = 1

 SCF Done:  E(RB3LYP) =  -323.737439977     A.U. after   13 cycles
 SCF Done:  E(RB3LYP) =  -323.752056855     A.U. after   12 cycles
 SCF Done:  E(RB3LYP) =  -323.754735385     A.U. after   12 cycles
 SCF Done:  E(RB3LYP) =  -323.752783745     A.U. after   12 cycles
 SCF Done:  E(RB3LYP) =  -323.755294082     A.U. after   10 cycles
 SCF Done:  E(RB3LYP) =  -323.756372795     A.U. after   13 cycles
 SCF Done:  E(RB3LYP) =  -323.756811233     A.U. after   12 cycles
 SCF Done:  E(RB3LYP) =  -323.757283812     A.U. after   12 cycles
 SCF Done:  E(RB3LYP) =  -323.757443107     A.U. after   11 cycles
 SCF Done:  E(RB3LYP) =  -323.757454177     A.U. after   11 cycles
 SCF Done:  E(RB3LYP) =  -323.757466362     A.U. after   11 cycles
 SCF Done:  E(RB3LYP) =  -323.757467667     A.U. after    9 cycles
 SCF Done:  E(RB3LYP) =  -323.757467703     A.U. after    8 cycles
 Optimization completed.
    -- Stationary point found.
 Normal termination of Gaussian 09 at Thu Aug 24 15:41:05 2023.

 ---------------------------------------------------------------------
 #N Geom=AllCheck Guess=TCheck SCRF=Check GenChk RB3LYP/6-31+G(d) Freq
 ---------------------------------------------------------------------

 Structure from the checkpoint file:  "D:\Reaction optimization project\source code\DFT\opti\ligand\opti\molecule_1.chk"
 -------------------
 Title Card Required
 -------------------
 Charge =  0 Multiplicity = 1

                         Standard orientation:
 ---------------------------------------------------------------------
 Center     Atomic      Atomic             Coordinates (Angstroms)
 Number     Number       Type             X           Y           Z
 ---------------------------------------------------------------------
      1          6           0       -1.281326   -1.220751   -0.470558
      2          6           0       -0.644540   -0.135722    0.411237
      3          7           0       -1.394506    1.101960    0.296182
      4          6           0        0.868043   -0.063740    0.089853
      5          8           0        1.304416    1.071187   -0.506879
      6          8           0        1.626318   -0.970922    0.339523
      7          1           0       -0.732445   -2.160270   -0.369407
      8          1           0       -1.259248   -0.924476   -1.527723
      9          1           0       -2.323459   -1.372934   -0.173921
     10          1           0       -0.693708   -0.467129    1.455483
     11          1           0       -1.709570    1.385132   -0.623008
     12          1           0       -1.162259    1.867785    0.914786
     13          1           0        0.543297    1.677332   -0.593825
 ---------------------------------------------------------------------

 SCF Done:  E(RB3LYP) =  -323.757467703     A.U. after    1 cycles

 The electronic state is 1-A.
 Alpha  occ. eigenvalues --  -19.21112 -19.14765 -14.36007 -10.32543 -10.25682
 Alpha  occ. eigenvalues --  -10.20238  -1.11241  -1.03012  -0.92265  -0.77028
 Alpha  occ. eigenvalues --   -0.66765  -0.61820  -0.55016  -0.54172  -0.48613
 Alpha  occ. eigenvalues --   -0.45926  -0.44705  -0.42263  -0.40147  -0.38526
 Alpha  occ. eigenvalues --   -0.37420  -0.32584  -0.31055  -0.25552
 Alpha virt. eigenvalues --   -0.02123  -0.00854   0.02206   0.02558   0.03495
 Alpha virt. eigenvalues --    0.05984   0.06261   0.07083   0.07814   0.09150
 Alpha virt. eigenvalues --    0.10638   0.11709   0.11945   0.12397   0.14102

 Mulliken charges:
               1
     1  C   -0.661095
     2  C   -0.038135
     3  N   -0.972615
     4  C    0.472881
     5  O   -0.546738
     6  O   -0.443855
     7  H    0.244182
     8  H    0.206000
     9  H    0.224189
    10  H    0.227618
    11  H    0.397193
    12  H    0.404369
    13  H    0.486006
 Sum of Mulliken charges =   0.00000

 Dipole moment (field-independent basis, Debye):
    X=             -3.7383    Y=              2.4317    Z=             -0.4819  Tot=              4.4856
 Quadrupole moment (field-independent basis, Debye-Ang):
   XX=            -46.4419   YY=            -33.6688   ZZ=            -35.1267
   XY=              1.5152   XZ=              1.5534   YZ=              0.5945

  Exact polarizability:  56.041  -2.265  55.451  -0.142  -2.922  43.096
 Approx polarizability:  71.450  -6.513  77.610   0.353  -7.733  60.796

 ******    1 imaginary frequencies (negative Signs) ******

                      1                      2                      3
                      A                      A                      A
 Frequencies --   -110.4189                64.0314               240.0192
 Red. masses --      1.8411                 4.2488                 1.2773
 Frc consts  --      0.0132                 0.0103                 0.0434
 IR Inten    --    262.2730                12.4064                 2.0532

                      4                      5                      6
                      A                      A                      A
 Frequencies --    270.0202               349.2847               384.7410
 Red. masses --      2.1782                 1.9751                 1.4888
 Frc consts  --      0.0936                 0.1420                 0.1298
 IR Inten    --      9.6983                26.4370                23.1215

                      7                      8                      9
                      A                      A                      A
 Frequencies --    402.5036               529.0439               610.8281
 Red. masses --      1.6863                 4.0290                 4.1601
 Frc consts  --      0.1610                 0.6644                 0.9145
 IR Inten    --     54.2401                10.2221                10.6405

                     10                     11                     12
                      A                      A                      A
 Frequencies --    678.0906               735.1821               798.5078
 Red. masses --      1.1188                 4.8023                 3.7289
 Frc consts  --      0.3031                 1.5293                 1.4008
 IR Inten    --     38.0010                 5.2479                13.3099

                     13                     14                     15
                      A                      A                      A
 Frequencies --    931.1227               999.0157              1064.3517
 Red. masses --      2.3905                 1.2599                 1.6953
 Frc consts  --      1.2211                 0.7409                 1.1315
 IR Inten    --      4.7762                 1.9306                32.4252

                     16                     17                     18
                      A                      A                      A
 Frequencies --   1152.2993              1190.7827              1250.7467
 Red. masses --      2.7485                 1.8984                 1.8696
 Frc consts  --      2.1502                 1.5860                 1.7232
 IR Inten    --     19.4179                12.1208                17.1704

                     19                     20                     21
                      A                      A                      A
 Frequencies --   1325.1074              1340.5960              1384.5111
 Red. masses --      1.4011                 2.1393                 1.2510
 Frc consts  --      1.4495                 2.2653                 1.4129
 IR Inten    --     46.6010               330.3915                15.6882

                     22                     23                     24
                      A                      A                      A
 Frequencies --   1429.2828              1520.2532              1521.7475
 Red. masses --      1.2226                 1.0453                 1.0484
 Frc consts  --      1.4715                 1.4233                 1.4304
 IR Inten    --     14.0976                 7.7110                 6.1995

                     25                     26                     27
                      A                      A                      A
 Frequencies --   1670.5425              1842.7629              3045.6874
 Red. masses --      1.1120                10.1503                 1.0446
 Frc consts  --      1.8285                20.3081                 5.7094
 IR Inten    --     40.1939               275.8124                17.1386

                     28                     29                     30
                      A                      A                      A
 Frequencies --   3068.0036              3120.9051              3156.9248
 Red. masses --      1.0819                 1.0952                 1.1030
 Frc consts  --      5.9998                 6.2849                 6.4765
 IR Inten    --     14.5338                22.9419                 7.8367

                     31                     32                     33
                      A                      A                      A
 Frequencies --   3563.3308              3635.1757              3678.8106
 Red. masses --      1.0461                 1.0641                 1.1018
 Frc consts  --      7.8262                 8.2849                 8.7853
 IR Inten    --      8.8498                91.2748                16.4933

 - Thermochemistry -
 -------------------
 Temperature   298.150 Kelvin.  Pressure   1.00000 Atm.
 Atom     1 has atomic number  6 and mass  12.00000

 Molecular mass:    89.04768 amu.
 Principal axes and moments of inertia in atomic units:
                           1         2         3
     Eigenvalues --   366.49094 574.34968 811.23465
           X            0.99895   0.04441   0.01123
           Y           -0.04467   0.99870   0.02454
           Z           -0.01012  -0.02501   0.99964
 This molecule is an asymmetric top.
 Rotational symmetry number  1.
 Rotational temperatures (Kelvin)      0.23633     0.15080     0.10677
 Rotational constants (GHZ):           4.92438     3.14223     2.22468
    1 imaginary frequencies ignored.
 Zero-point vibrational energy     280848.6 (Joules/Mol)
                                   67.12442 (Kcal/Mol)
 Warning -- explicit consideration of   8 degrees of freedom as
           vibrations may cause significant error
 Vibrational temperatures:     92.13   345.33   388.50   502.54   553.56
          (Kelvin)            579.11   761.18   878.84   975.62  1057.76
                             1148.87  1339.68  1437.36  1531.36  1657.90
                             1713.27  1799.54  1906.53  1928.82  1992.00
                             2056.42  2187.30  2189.45  2403.53  2651.32
                             4382.06  4414.17  4490.28  4542.10  5126.83
                             5230.20  5292.98

 Zero-point correction=                           0.106970 (Hartree/Particle)
 Thermal correction to Energy=                    0.113430
 Thermal correction to Enthalpy=                  0.114374
 Thermal correction to Gibbs Free Energy=         0.076725
 Sum of electronic and zero-point Energies=           -323.650498
 Sum of electronic and thermal Energies=              -323.644037
 Sum of electronic and thermal Enthalpies=            -323.643093
 Sum of electronic and thermal Free Energies=         -323.680742

                     E (Thermal)             CV                S
                      KCal/Mol        Cal/Mol-Kelvin    Cal/Mol-Kelvin
 Total                   71.179             22.915             79.239
 Electronic               0.000              0.000              0.000
 Translational            0.889              2.981             39.372
 Rotational               0.889              2.981             26.637
 Vibrational             69.401             16.953             13.229
 Vibration     1          0.597              1.971              4.329
 Vibration     2          0.657              1.779              1.803
 Vibration     3          0.674              1.728              1.596
 Vibration     4          0.727              1.577              1.169
 Vibration     5          0.754              1.503              1.020
 Vibration     6          0.768              1.465              0.953
 Vibration     7          0.884              1.186              0.589
 Vibration     8          0.970              1.009              0.431

 Normal termination of Gaussian 09 at Thu Aug 24 15:41:54 2023.
