 Gaussian 16, Revision B.01,
 Gaussian 16:  EM64L-G16RevB.01 20-Dec-2017

 ----------------------------------------------------------------------
 # opt freq rb3lyp/gen empiricaldispersion=gd3 pseudo=read scf=maxcycle
 =1000 volume
 ----------------------------------------------------------------------

 -----
 reac1
 -----
 Symbolic Z-matrix:
 Charge =  0 Multiplicity = 1

 SCF Done:  E(RB3LYP) =  -321.712877303     A.U. after   14 cycles
 Optimization completed.
    -- Stationary point found.
 Normal termination of Gaussian 16 at Sat Sep 16 07:48:29 2023.

 ------------------------------------------------------------------
 #N Geom=AllCheck Guess=TCheck SCRF=Check GenChk RB3LYP/ChkBas Freq
 ------------------------------------------------------------------

 Structure from the checkpoint file:  "ARYLHALIDE-mm-ch3-gen-vol.chk"
 -----
 reac1
 -----
 Charge =  0 Multiplicity = 1

                         Standard orientation:
 ---------------------------------------------------------------------
 Center     Atomic      Atomic             Coordinates (Angstroms)
 Number     Number       Type             X           Y           Z
 ---------------------------------------------------------------------
      1          6           0       -0.075715   -0.000269    0.000006
      2          6           0       -0.754023   -1.217639    0.000229
      3          6           0       -0.754067    1.217451   -0.000148
      4          6           0       -2.157213   -1.224079    0.000292
      5          1           0       -0.208164   -2.156434    0.000323
      6          6           0       -2.157002    1.224164   -0.000060
      7          6           0       -2.838109   -0.000002    0.000137
      8         53           0        2.078852    0.000006   -0.000154
      9          1           0       -0.207697    2.155939   -0.000348
     10          1           0       -3.926336    0.000089    0.000160
     11          6           0       -2.903872   -2.539516    0.000498
     12          1           0       -2.649907   -3.139169   -0.882602
     13          1           0       -2.649862   -3.138913    0.883759
     14          1           0       -3.987911   -2.384948    0.000503
     15          6           0       -2.903689    2.539739    0.000045
     16          1           0       -2.651425    3.138196    0.884641
     17          1           0       -2.647815    3.140474   -0.881944
     18          1           0       -3.987902    2.385350   -0.002331
 ---------------------------------------------------------------------

 SCF Done:  E(RB3LYP) =  -321.712877303     A.U. after    1 cycles

 The electronic state is 1-A.
 Alpha  occ. eigenvalues --  -10.24330 -10.21070 -10.21069 -10.19906 -10.19904
 Alpha  occ. eigenvalues --  -10.19366 -10.18804 -10.18799  -0.87594  -0.79535
 Alpha  occ. eigenvalues --   -0.78267  -0.70735  -0.69612  -0.68681  -0.58879
 Alpha  occ. eigenvalues --   -0.58670  -0.51436  -0.48734  -0.43674  -0.43604
 Alpha  occ. eigenvalues --   -0.42498  -0.42109  -0.40871  -0.40700  -0.39009
 Alpha  occ. eigenvalues --   -0.36642  -0.35442  -0.33528  -0.29010  -0.26696
 Alpha  occ. eigenvalues --   -0.25198  -0.24050
 Alpha virt. eigenvalues --   -0.04168  -0.02559  -0.01998   0.00230   0.01618
 Alpha virt. eigenvalues --    0.02135   0.03409   0.03529   0.03586   0.05311
 Alpha virt. eigenvalues --    0.06125   0.06229   0.06362   0.06492   0.07392

 Mulliken charges:
               1
     1  C    1.156402
     2  C   -0.380843
     3  C   -0.381154
     4  C    0.263337
     5  H    0.191982
     6  C    0.263093
     7  C   -1.191174
     8  I    0.052917
     9  H    0.191974
    10  H    0.169408
    11  C   -0.825079
    12  H    0.225381
    13  H    0.225383
    14  H    0.206421
    15  C   -0.825184
    16  H    0.225422
    17  H    0.225302
    18  H    0.206411
 Sum of Mulliken charges =   0.00000

 Dipole moment (field-independent basis, Debye):
    X=             -2.3089    Y=             -0.0004    Z=              0.0005  Tot=              2.3089
 Quadrupole moment (field-independent basis, Debye-Ang):
   XX=            -63.7441   YY=            -62.9443   ZZ=            -72.7735
   XY=              0.0011   XZ=             -0.0015   YZ=             -0.0006

  Exact polarizability: 164.543   0.001 129.100  -0.008  -0.003  73.977
 Approx polarizability: 232.579   0.008 188.457  -0.011  -0.006 104.850

 ******    1 imaginary frequencies (negative Signs) ******

                      1                      2                      3
                      A                      A                      A
 Frequencies --    -27.3525                20.3645               128.3952
 Red. masses --      1.0309                 1.0301                 4.4561
 Frc consts  --      0.0005                 0.0003                 0.0433
 IR Inten    --      0.1633                 0.2865                 1.8927

                      4                      5                      6
                      A                      A                      A
 Frequencies --    161.3103               214.2133               217.0127
 Red. masses --      4.6338                 3.0604                 5.4342
 Frc consts  --      0.0710                 0.0827                 0.1508
 IR Inten    --      0.0660                 1.7069                 1.3921

                      7                      8                      9
                      A                      A                      A
 Frequencies --    217.2430               300.9348               450.5411
 Red. masses --      2.9394                 3.2860                 2.7879
 Frc consts  --      0.0817                 0.1753                 0.3334
 IR Inten    --      0.0071                 0.0410                 0.1627

                     10                     11                     12
                      A                      A                      A
 Frequencies --    511.0222               520.0299               524.7020
 Red. masses --      4.6358                 5.2687                 2.9753
 Frc consts  --      0.7133                 0.8395                 0.4826
 IR Inten    --      0.0397                 0.3490                 0.0000

                     13                     14                     15
                      A                      A                      A
 Frequencies --    546.0876               689.7449               781.0897
 Red. masses --      4.7109                 2.5095                 7.1087
 Frc consts  --      0.8277                 0.7034                 2.5553
 IR Inten    --      4.2521                11.1028                58.1926

                     16                     17                     18
                      A                      A                      A
 Frequencies --    862.3382               892.6657               905.5293
 Red. masses --      1.3419                 1.3245                 1.3243
 Frc consts  --      0.5879                 0.6218                 0.6398
 IR Inten    --     29.4464                 0.0000                 0.0059

                     19                     20                     21
                      A                      A                      A
 Frequencies --    962.9849              1009.5234              1019.6040
 Red. masses --      4.3292                 6.2063                 1.4236
 Frc consts  --      2.3654                 3.7266                 0.8720
 IR Inten    --      0.2801                10.5665                 1.3124

                     22                     23                     24
                      A                      A                      A
 Frequencies --   1040.8304              1072.5440              1074.0471
 Red. masses --      1.4483                 1.5176                 1.5097
 Frc consts  --      0.9244                 1.0286                 1.0261
 IR Inten    --      5.7115                 6.2296                 0.0523

                     25                     26                     27
                      A                      A                      A
 Frequencies --   1147.7475              1207.5024              1276.1602
 Red. masses --      1.7372                 1.4799                 3.7465
 Frc consts  --      1.3483                 1.2713                 3.5949
 IR Inten    --     10.2716                 0.2920                16.2187

                     28                     29                     30
                      A                      A                      A
 Frequencies --   1318.2205              1347.6389              1438.6327
 Red. masses --      2.2428                 1.9092                 1.2254
 Frc consts  --      2.2962                 2.0429                 1.4943
 IR Inten    --      0.1717                 1.2414                 1.5649

                     31                     32                     33
                      A                      A                      A
 Frequencies --   1439.6043              1465.7623              1471.2039
 Red. masses --      1.2425                 2.1158                 2.6438
 Frc consts  --      1.5172                 2.6783                 3.3715
 IR Inten    --      0.7192                 1.3913                 1.9251

                     34                     35                     36
                      A                      A                      A
 Frequencies --   1508.9477              1509.6860              1522.4573
 Red. masses --      1.0430                 1.0434                 1.1439
 Frc consts  --      1.3992                 1.4011                 1.5622
 IR Inten    --      0.1717                14.9095                10.6766

                     37                     38                     39
                      A                      A                      A
 Frequencies --   1525.7308              1610.5944              1649.3610
 Red. masses --      1.2322                 5.1804                 5.4860
 Frc consts  --      1.6900                 7.9175                 8.7931
 IR Inten    --     38.9864                74.6460                36.1927

                     40                     41                     42
                      A                      A                      A
 Frequencies --   3038.6250              3039.9826              3090.9936
 Red. masses --      1.0369                 1.0369                 1.1010
 Frc consts  --      5.6407                 5.6457                 6.1976
 IR Inten    --     39.1982                27.6081                13.6073

                     43                     44                     45
                      A                      A                      A
 Frequencies --   3092.3830              3116.7310              3118.1099
 Red. masses --      1.1010                 1.1014                 1.1014
 Frc consts  --      6.2031                 6.3034                 6.3091
 IR Inten    --     16.1563                16.9549                18.3652

                     46                     47                     48
                      A                      A                      A
 Frequencies --   3174.8878              3202.5927              3203.2506
 Red. masses --      1.0901                 1.0911                 1.0916
 Frc consts  --      6.4740                 6.5936                 6.5993
 IR Inten    --     22.0136                 6.1300                 0.2026

 - Thermochemistry -
 -------------------
 Temperature   298.150 Kelvin.  Pressure   1.00000 Atm.
 Atom     1 has atomic number  6 and mass  12.00000

 Molecular mass:   231.97083 amu.
 Principal axes and moments of inertia in atomic units:
                           1         2         3
     Eigenvalues --  1035.764463689.177514702.48101
           X            1.00000   0.00000   0.00007
           Y            0.00000   1.00000   0.00010
           Z           -0.00007  -0.00010   1.00000
 This molecule is an asymmetric top.
 Rotational symmetry number  1.
 Warning -- assumption of classical behavior for rotation
           may cause significant error
 Rotational temperatures (Kelvin)      0.08362     0.02348     0.01842
 Rotational constants (GHZ):           1.74242     0.48920     0.38378
    1 imaginary frequencies ignored.
 Zero-point vibrational energy     380649.1 (Joules/Mol)
                                   90.97732 (Kcal/Mol)
 Warning -- explicit consideration of  12 degrees of freedom as
           vibrations may cause significant error
 Vibrational temperatures:     29.30   184.73   232.09   308.21   312.23
          (Kelvin)            312.56   432.98   648.23   735.25   748.21
                              754.93   785.70   992.39  1123.81  1240.71
                             1284.35  1302.85  1385.52  1452.48  1466.98
                             1497.52  1543.15  1545.31  1651.35  1737.33
                             1836.11  1896.63  1938.95  2069.87  2071.27
                             2108.91  2116.73  2171.04  2172.10  2190.48
                             2195.19  2317.29  2373.06  4371.90  4373.86
                             4447.25  4449.25  4484.28  4486.26  4567.96
                             4607.82  4608.76

 Zero-point correction=                           0.144982 (Hartree/Particle)
 Thermal correction to Energy=                    0.153820
 Thermal correction to Enthalpy=                  0.154764
 Thermal correction to Gibbs Free Energy=         0.108232
 Sum of electronic and zero-point Energies=           -321.567896
 Sum of electronic and thermal Energies=              -321.559057
 Sum of electronic and thermal Enthalpies=            -321.558113
 Sum of electronic and thermal Free Energies=         -321.604646

                     E (Thermal)             CV                S
                      KCal/Mol        Cal/Mol-Kelvin    Cal/Mol-Kelvin
 Total                   96.523             31.788             97.936
 Electronic               0.000              0.000              0.000
 Translational            0.889              2.981             42.226
 Rotational               0.889              2.981             31.264
 Vibrational             94.746             25.826             24.446
 Vibration     1          0.593              1.986              6.598
 Vibration     2          0.611              1.925              2.970
 Vibration     3          0.622              1.890              2.534
 Vibration     4          0.644              1.819              2.007
 Vibration     5          0.646              1.815              1.984
 Vibration     6          0.646              1.815              1.982
 Vibration     7          0.693              1.672              1.412
 Vibration     8          0.809              1.360              0.794
 Vibration     9          0.866              1.226              0.631
 Vibration    10          0.875              1.206              0.610
 Vibration    11          0.880              1.195              0.599
 Vibration    12          0.901              1.148              0.552

                           ! Non-Optimized Parameters !
 Normal termination of Gaussian 16 at Sat Sep 16 07:49:34 2023.
