 Gaussian 16, Revision B.01,
 Gaussian 16:  EM64L-G16RevB.01 20-Dec-2017

 ----------------------------------------------------------------------
 # opt freq b3lyp/gen empiricaldispersion=gd3 pseudo=read scf=maxcycle=
 1000 volume
 ----------------------------------------------------------------------

 -------------------
 Title Card Required
 -------------------
 Symbolic Z-matrix:
 Charge =  0 Multiplicity = 1

 SCF Done:  E(RB3LYP) =  -335.315027415     A.U. after   14 cycles
 Optimization completed.
    -- Stationary point found.
 Normal termination of Gaussian 16 at Mon Sep 18 06:35:44 2023.

 ------------------------------------------------------------------
 #N Geom=AllCheck Guess=TCheck SCRF=Check GenChk RB3LYP/ChkBas Freq
 ------------------------------------------------------------------

 Structure from the checkpoint file:  "ARyLHALIDE-cn-SOL-disp-g16-gas-gen-volume.chk"
 -------------------
 Title Card Required
 -------------------
 Charge =  0 Multiplicity = 1

                         Standard orientation:
 ---------------------------------------------------------------------
 Center     Atomic      Atomic             Coordinates (Angstroms)
 Number     Number       Type             X           Y           Z
 ---------------------------------------------------------------------
      1          6           0        0.000000    1.216327   -2.034776
      2          6           0        0.000000    0.000000   -2.739150
      3          6           0        0.000000   -1.216327   -2.034776
      4          6           0        0.000000   -1.217193   -0.640250
      5          6           0        0.000000    0.000000    0.047329
      6          6           0        0.000000    1.217193   -0.640250
      7          1           0        0.000000    2.156029   -2.578409
      8          1           0        0.000000   -2.156029   -2.578409
      9          1           0        0.000000   -2.158541   -0.101116
     10          1           0        0.000000    2.158541   -0.101116
     11         53           0        0.000000    0.000000    2.189061
     12          6           0        0.000000    0.000000   -4.174044
     13          7           0        0.000000    0.000000   -5.337955
 ---------------------------------------------------------------------

 SCF Done:  E(RB3LYP) =  -335.315027415     A.U. after    1 cycles

 The electronic state is 1-A1.
 Alpha  occ. eigenvalues --  -14.35646 -10.27421 -10.25860 -10.24509 -10.23804
 Alpha  occ. eigenvalues --  -10.23804 -10.23455 -10.23455  -0.92719  -0.90240
 Alpha  occ. eigenvalues --   -0.81546  -0.79513  -0.72450  -0.65609  -0.65061
 Alpha  occ. eigenvalues --   -0.58740  -0.50691  -0.49937  -0.47384  -0.46885
 Alpha  occ. eigenvalues --   -0.42815  -0.39998  -0.38271  -0.37442  -0.37006
 Alpha  occ. eigenvalues --   -0.34957  -0.31280  -0.29854  -0.28886  -0.26511
 Alpha virt. eigenvalues --   -0.07623  -0.06347  -0.05273  -0.00548   0.01133
 Alpha virt. eigenvalues --    0.01251   0.01307   0.02804   0.03624   0.04046
 Alpha virt. eigenvalues --    0.04365   0.05012   0.05807   0.06495   0.07205

 Mulliken charges:
               1
     1  C   -0.332894
     2  C    0.477375
     3  C   -0.332894
     4  C   -0.345260
     5  C    0.688381
     6  C   -0.345260
     7  H    0.211328
     8  H    0.211328
     9  H    0.208208
    10  H    0.208208
    11  I    0.107538
    12  C   -0.356902
    13  N   -0.399156
 Sum of Mulliken charges =   0.00000

 Dipole moment (field-independent basis, Debye):
    X=              0.0000    Y=              0.0000    Z=              3.3154  Tot=              3.3154
 Quadrupole moment (field-independent basis, Debye-Ang):
   XX=            -69.3044   YY=            -58.6321   ZZ=            -95.1889
   XY=              0.0000   XZ=              0.0000   YZ=              0.0000

  Exact polarizability:  60.513   0.000  95.610   0.000   0.000 192.887
 Approx polarizability:  83.387   0.000 154.824   0.000   0.000 282.574

                      1                      2                      3
                     B1                     B2                     B1
 Frequencies --     72.3246               127.7486               214.7141
 Red. masses --     10.0354                10.7794                 7.6799
 Frc consts  --      0.0309                 0.1036                 0.2086
 IR Inten    --      3.1915                 5.8055                 3.4069

                      4                      5                      6
                     A1                     B2                     A2
 Frequencies --    225.5972               243.3422               409.2396
 Red. masses --     15.3796                 5.4802                 2.9057
 Frc consts  --      0.4612                 0.1912                 0.2867
 IR Inten    --      0.6600                 1.2533                 0.0000

                      7                      8                      9
                     B1                     A1                     B2
 Frequencies --    430.0316               520.1191               556.7760
 Red. masses --      5.2454                 8.5455                 7.7884
 Frc consts  --      0.5715                 1.3621                 1.4225
 IR Inten    --      2.1097                 8.7314                 0.1092

                     10                     11                     12
                     B1                     B2                     B1
 Frequencies --    558.9363               647.6713               715.4274
 Red. masses --      3.9978                 7.4442                 3.8701
 Frc consts  --      0.7359                 1.8398                 1.1671
 IR Inten    --     20.2784                 0.0580                 2.3852

                     13                     14                     15
                     A1                     B1                     A2
 Frequencies --    778.7839               838.9580               844.3294
 Red. masses --      6.7585                 1.4866                 1.2462
 Frc consts  --      2.4151                 0.6165                 0.5235
 IR Inten    --     12.8835                48.3827                 0.0000

                     16                     17                     18
                     B1                     A2                     A1
 Frequencies --    977.8085               985.6855              1018.6335
 Red. masses --      1.3191                 1.3672                 6.1253
 Frc consts  --      0.7431                 0.7826                 3.7447
 IR Inten    --      0.1575                 0.0000                64.2521

                     19                     20                     21
                     A1                     B2                     A1
 Frequencies --   1077.1110              1149.4066              1216.5505
 Red. masses --      2.6249                 1.4457                 2.1530
 Frc consts  --      1.7942                 1.1253                 1.8774
 IR Inten    --     14.7838                 2.5135                 0.0100

                     22                     23                     24
                     A1                     B2                     B2
 Frequencies --   1234.5028              1322.6788              1341.7350
 Red. masses --      1.4963                11.0023                 1.2652
 Frc consts  --      1.3436                11.3408                 1.3420
 IR Inten    --      2.6537                 3.3233                 0.2788

                     25                     26                     27
                     B2                     A1                     B2
 Frequencies --   1433.3491              1525.2389              1598.4587
 Red. masses --      2.4694                 2.1406                 6.6241
 Frc consts  --      2.9892                 2.9340                 9.9720
 IR Inten    --     10.9421                48.1138                 0.0170

                     28                     29                     30
                     A1                     A1                     A1
 Frequencies --   1634.5116              2333.6207              3211.0560
 Red. masses --      5.2257                12.6790                 1.0895
 Frc consts  --      8.2257                40.6814                 6.6187
 IR Inten    --     54.4997                48.9811                 0.5794

                     31                     32                     33
                     B2                     B2                     A1
 Frequencies --   3211.9847              3226.8684              3228.1657
 Red. masses --      1.0891                 1.0948                 1.0958
 Frc consts  --      6.6203                 6.7166                 6.7284
 IR Inten    --      0.4594                 2.9040                 0.3892

 - Thermochemistry -
 -------------------
 Temperature   298.150 Kelvin.  Pressure   1.00000 Atm.
 Atom     1 has atomic number  6 and mass  12.00000

 Molecular mass:   228.93477 amu.
 Principal axes and moments of inertia in atomic units:
                           1         2         3
     Eigenvalues --   320.772445061.916975382.68941
           X            0.00000   0.00000   1.00000
           Y            0.00000   1.00000   0.00000
           Z            1.00000   0.00000   0.00000
 This molecule is an asymmetric top.
 Rotational symmetry number  2.
 Rotational temperatures (Kelvin)      0.27002     0.01711     0.01609
 Rotational constants (GHZ):           5.62624     0.35653     0.33529
 Zero-point vibrational energy     232741.6 (Joules/Mol)
                                   55.62659 (Kcal/Mol)
 Warning -- explicit consideration of  10 degrees of freedom as
           vibrations may cause significant error
 Vibrational temperatures:    104.06   183.80   308.93   324.58   350.12
          (Kelvin)            588.80   618.72   748.34   801.08   804.18
                              931.85  1029.34  1120.50  1207.07  1214.80
                             1406.85  1418.18  1465.59  1549.72  1653.74
                             1750.34  1776.17  1903.04  1930.46  2062.27
                             2194.48  2299.83  2351.70  3357.56  4619.99
                             4621.33  4642.74  4644.61

 Zero-point correction=                           0.088647 (Hartree/Particle)
 Thermal correction to Energy=                    0.096357
 Thermal correction to Enthalpy=                  0.097301
 Thermal correction to Gibbs Free Energy=         0.054831
 Sum of electronic and zero-point Energies=           -335.226381
 Sum of electronic and thermal Energies=              -335.218671
 Sum of electronic and thermal Enthalpies=            -335.217726
 Sum of electronic and thermal Free Energies=         -335.260196

                     E (Thermal)             CV                S
                      KCal/Mol        Cal/Mol-Kelvin    Cal/Mol-Kelvin
 Total                   60.465             27.745             89.386
 Electronic               0.000              0.000              0.000
 Translational            0.889              2.981             42.187
 Rotational               0.889              2.981             29.170
 Vibrational             58.687             21.783             18.029
 Vibration     1          0.598              1.967              4.089
 Vibration     2          0.611              1.925              2.980
 Vibration     3          0.645              1.819              2.003
 Vibration     4          0.650              1.802              1.914
 Vibration     5          0.659              1.774              1.778
 Vibration     6          0.774              1.450              0.929
 Vibration     7          0.791              1.405              0.859
 Vibration     8          0.875              1.205              0.610
 Vibration     9          0.912              1.125              0.530
 Vibration    10          0.915              1.120              0.526

 Optimization completed.
    -- Stationary point found.
 Normal termination of Gaussian 16 at Mon Sep 18 06:36:06 2023.
