 Gaussian 16, Revision B.01,
 Gaussian 16:  EM64L-G16RevB.01 20-Dec-2017

 ----------------------------------------------------------------------
 # opt freq b3lyp/gen empiricaldispersion=gd3 pseudo=read scf=maxcycle=
 1000 volume
 ----------------------------------------------------------------------

 -------------------
 Title Card Required
 -------------------
 Symbolic Z-matrix:
 Charge =  0 Multiplicity = 1

 SCF Done:  E(RB3LYP) =  -435.694586329     A.U. after   14 cycles
 SCF Done:  E(RB3LYP) =  -435.694586378     A.U. after   10 cycles
 SCF Done:  E(RB3LYP) =  -435.694586116     A.U. after   11 cycles
 SCF Done:  E(RB3LYP) =  -435.694586507     A.U. after   10 cycles
 SCF Done:  E(RB3LYP) =  -435.694586668     A.U. after    9 cycles
 SCF Done:  E(RB3LYP) =  -435.694524561     A.U. after   14 cycles
 SCF Done:  E(RB3LYP) =  -435.684217782     A.U. after   14 cycles
 SCF Done:  E(RB3LYP) =  -435.681747191     A.U. after   14 cycles
 SCF Done:  E(RB3LYP) =  -435.687373202     A.U. after   13 cycles
 SCF Done:  E(RB3LYP) =  -435.690745034     A.U. after   13 cycles
 SCF Done:  E(RB3LYP) =  -435.699433498     A.U. after   14 cycles
 SCF Done:  E(RB3LYP) =  -435.699262050     A.U. after   13 cycles
 SCF Done:  E(RB3LYP) =  -435.699624575     A.U. after   13 cycles
 SCF Done:  E(RB3LYP) =  -435.699714847     A.U. after   13 cycles
 SCF Done:  E(RB3LYP) =  -435.699819468     A.U. after   12 cycles
 SCF Done:  E(RB3LYP) =  -435.699848615     A.U. after   12 cycles
 SCF Done:  E(RB3LYP) =  -435.699853704     A.U. after   11 cycles
 SCF Done:  E(RB3LYP) =  -435.699853925     A.U. after   10 cycles
 SCF Done:  E(RB3LYP) =  -435.699853964     A.U. after    9 cycles
 Optimization completed.
    -- Stationary point found.
 Normal termination of Gaussian 16 at Wed Sep 20 05:50:56 2023.

 ------------------------------------------------------------------
 #N Geom=AllCheck Guess=TCheck SCRF=Check GenChk RB3LYP/ChkBas Freq
 ------------------------------------------------------------------

 Structure from the checkpoint file:  "OCH3-Br-vol.chk"
 -------------------
 Title Card Required
 -------------------
 Charge =  0 Multiplicity = 1

                         Standard orientation:
 ---------------------------------------------------------------------
 Center     Atomic      Atomic             Coordinates (Angstroms)
 Number     Number       Type             X           Y           Z
 ---------------------------------------------------------------------
      1          6           0       -2.604710    1.003249   -0.000149
      2          6           0       -1.209338    1.059648   -0.000283
      3          6           0       -0.433204   -0.111839   -0.000351
      4          6           0       -1.099662   -1.357513   -0.000089
      5          6           0       -2.485533   -1.421652    0.000015
      6          6           0       -3.249518   -0.242187   -0.000005
      7          1           0       -3.169931    1.928189   -0.000069
      8          1           0       -0.713515    2.025967   -0.000357
      9          1           0       -0.515647   -2.273095    0.000003
     10          1           0       -3.003754   -2.375737    0.000171
     11          6           0        0.993418   -0.045959   -0.000474
     12          6           0        2.205261    0.005785   -0.000343
     13         35           0        4.033344    0.091583    0.000173
     14          8           0       -4.602294   -0.414918    0.000093
     15          6           0       -5.438866    0.736189    0.000384
     16          1           0       -6.462581    0.358001    0.000386
     17          1           0       -5.275061    1.348026    0.897678
     18          1           0       -5.275279    1.348258   -0.896833
 ---------------------------------------------------------------------

 SCF Done:  E(RB3LYP) =  -435.699853964     A.U. after    1 cycles

 The electronic state is 1-A.
 Alpha  occ. eigenvalues --  -19.19369 -10.26315 -10.24711 -10.22854 -10.21782
 Alpha  occ. eigenvalues --  -10.20576 -10.20396 -10.20087 -10.20062 -10.19591
 Alpha  occ. eigenvalues --   -1.08178  -0.87320  -0.86621  -0.79164  -0.76540
 Alpha  occ. eigenvalues --   -0.74061  -0.70585  -0.62865  -0.61651  -0.55547
 Alpha  occ. eigenvalues --   -0.53249  -0.49872  -0.48374  -0.48275  -0.46118
 Alpha  occ. eigenvalues --   -0.43929  -0.43147  -0.40278  -0.39823  -0.37871
 Alpha  occ. eigenvalues --   -0.36744  -0.35875  -0.34261  -0.34155  -0.28370
 Alpha  occ. eigenvalues --   -0.26829  -0.26614  -0.22047
 Alpha virt. eigenvalues --   -0.03329  -0.02745  -0.02244  -0.00118   0.01458
 Alpha virt. eigenvalues --    0.02050   0.03200   0.03509   0.03805   0.03907
 Alpha virt. eigenvalues --    0.05000   0.05114   0.05268   0.05948   0.07409

 Mulliken charges:
               1
     1  C    0.518473
     2  C   -0.718557
     3  C   -0.285231
     4  C   -0.233931
     5  C   -0.104681
     6  C   -0.041401
     7  H    0.180536
     8  H    0.194005
     9  H    0.195454
    10  H    0.194341
    11  C    0.505937
    12  C   -0.574267
    13  Br   0.271230
    14  O   -0.374346
    15  C   -0.342667
    16  H    0.209080
    17  H    0.203020
    18  H    0.203004
 Sum of Mulliken charges =   0.00000

 Dipole moment (field-independent basis, Debye):
    X=             -2.1048    Y=              1.2329    Z=              0.0010  Tot=              2.4393
 Quadrupole moment (field-independent basis, Debye-Ang):
   XX=            -57.5514   YY=            -68.5007   ZZ=            -76.9480
   XY=             -6.8944   XZ=             -0.0007   YZ=             -0.0001

  Exact polarizability: 233.995  -1.045 103.321  -0.001  -0.002  66.713
 Approx polarizability: 323.105   4.568 164.129   0.001  -0.005  93.284

                      1                      2                      3
                      A                      A                      A
 Frequencies --     45.4966                55.4144                94.5108
 Red. masses --      5.9194                 7.0578                 4.1424
 Frc consts  --      0.0072                 0.0128                 0.0218
 IR Inten    --      1.3681                 0.8961                 0.4072

                      4                      5                      6
                      A                      A                      A
 Frequencies --    141.9642               200.0082               226.1204
 Red. masses --      6.7576                 7.3860                 9.4568
 Frc consts  --      0.0802                 0.1741                 0.2849
 IR Inten    --      8.7220                 2.5959                 0.7282

                      7                      8                      9
                      A                      A                      A
 Frequencies --    234.2495               277.8344               289.3989
 Red. masses --      2.1376                 4.2895                 1.6732
 Frc consts  --      0.0691                 0.1951                 0.0826
 IR Inten    --      0.0919                 2.6403                 0.2138

                     10                     11                     12
                      A                      A                      A
 Frequencies --    423.0478               447.3042               456.2650
 Red. masses --      3.0926                 6.4996                 5.4347
 Frc consts  --      0.3261                 0.7662                 0.6666
 IR Inten    --      0.0257                 0.1354                 0.1814

                     13                     14                     15
                      A                      A                      A
 Frequencies --    513.8201               547.2651               564.2486
 Red. masses --      7.2182                 2.5136                 5.6279
 Frc consts  --      1.1228                 0.4435                 1.0557
 IR Inten    --      5.7922                22.3751                26.4034

                     16                     17                     18
                      A                      A                      A
 Frequencies --    654.1484               724.6392               761.5888
 Red. masses --      7.1598                 3.9766                 5.9469
 Frc consts  --      1.8051                 1.2303                 2.0323
 IR Inten    --      0.9679                 0.2411                 3.7912

                     19                     20                     21
                      A                      A                      A
 Frequencies --    821.8211               848.4260               856.3305
 Red. masses --      1.2828                 1.6556                 6.7458
 Frc consts  --      0.5104                 0.7022                 2.9145
 IR Inten    --      7.6918                56.0072                 5.1685

                     22                     23                     24
                      A                      A                      A
 Frequencies --    952.1815               972.0965              1028.7266
 Red. masses --      1.3288                 1.3249                 2.8051
 Frc consts  --      0.7098                 0.7376                 1.7490
 IR Inten    --      0.0828                 0.0617                 0.2192

                     25                     26                     27
                      A                      A                      A
 Frequencies --   1066.3454              1147.9550              1180.7888
 Red. masses --      6.1843                 1.3527                 1.2701
 Frc consts  --      4.1432                 1.0502                 1.0434
 IR Inten    --     64.6875                 8.3817                 1.0391

                     28                     29                     30
                      A                      A                      A
 Frequencies --   1212.4871              1216.7558              1261.2634
 Red. masses --      1.2219                 1.3395                 3.7701
 Frc consts  --      1.0584                 1.1684                 3.5336
 IR Inten    --     19.0743                48.8447                 0.8017

                     31                     32                     33
                      A                      A                      A
 Frequencies --   1294.2453              1335.9712              1345.5512
 Red. masses --      4.7181                 2.1652                 2.2706
 Frc consts  --      4.6564                 2.2768                 2.4221
 IR Inten    --    291.9826                44.4881                43.1542

                     34                     35                     36
                      A                      A                      A
 Frequencies --   1457.4210              1493.7961              1519.1308
 Red. masses --      2.9757                 1.1812                 1.0458
 Frc consts  --      3.7240                 1.5530                 1.4220
 IR Inten    --      2.7027                18.4908                 8.3584

                     37                     38                     39
                      A                      A                      A
 Frequencies --   1526.5556              1553.3240              1607.3426
 Red. masses --      1.0618                 2.4133                 6.4131
 Frc consts  --      1.4579                 3.4307                 9.7619
 IR Inten    --     46.8227               141.6457                13.7953

                     40                     41                     42
                      A                      A                      A
 Frequencies --   1659.8133              2297.2318              3023.1162
 Red. masses --      5.5553                12.0043                 1.0344
 Frc consts  --      9.0174                37.3248                 5.5697
 IR Inten    --    102.0465                 5.3039                67.0024

                     43                     44                     45
                      A                      A                      A
 Frequencies --   3084.6554              3158.5503              3201.6455
 Red. masses --      1.1070                 1.0999                 1.0884
 Frc consts  --      6.2058                 6.4654                 6.5732
 IR Inten    --     38.8986                23.4054                 8.4176

                     46                     47                     48
                      A                      A                      A
 Frequencies --   3202.7459              3218.3759              3228.0760
 Red. masses --      1.0894                 1.0951                 1.0925
 Frc consts  --      6.5839                 6.6830                 6.7078
 IR Inten    --      4.2436                 7.1937                10.1448

 - Thermochemistry -
 -------------------
 Temperature   298.150 Kelvin.  Pressure   1.00000 Atm.
 Atom     1 has atomic number  6 and mass  12.00000

 Molecular mass:   209.96803 amu.
 Principal axes and moments of inertia in atomic units:
                           1         2         3
     Eigenvalues --   381.186178810.056519179.65282
           X            0.99997  -0.00821  -0.00001
           Y            0.00821   0.99997   0.00000
           Z            0.00001   0.00000   1.00000
 This molecule is an asymmetric top.
 Rotational symmetry number  1.
 Rotational temperatures (Kelvin)      0.22722     0.00983     0.00944
 Rotational constants (GHZ):           4.73454     0.20485     0.19660
 Zero-point vibrational energy     349489.3 (Joules/Mol)
                                   83.52995 (Kcal/Mol)
 Warning -- explicit consideration of  15 degrees of freedom as
           vibrations may cause significant error
 Vibrational temperatures:     65.46    79.73   135.98   204.25   287.77
          (Kelvin)            325.34   337.03   399.74   416.38   608.67
                              643.57   656.46   739.27   787.39   811.83
                              941.17  1042.59  1095.76  1182.42  1220.70
                             1232.07  1369.98  1398.63  1480.11  1534.23
                             1651.65  1698.89  1744.50  1750.64  1814.68
                             1862.13  1922.16  1935.95  2096.90  2149.24
                             2185.69  2196.37  2234.89  2312.61  2388.10
                             3305.20  4349.59  4438.13  4544.45  4606.45
                             4608.04  4630.53  4644.48

 Zero-point correction=                           0.133113 (Hartree/Particle)
 Thermal correction to Energy=                    0.143705
 Thermal correction to Enthalpy=                  0.144650
 Thermal correction to Gibbs Free Energy=         0.094813
 Sum of electronic and zero-point Energies=           -435.566741
 Sum of electronic and thermal Energies=              -435.556149
 Sum of electronic and thermal Enthalpies=            -435.555204
 Sum of electronic and thermal Free Energies=         -435.605041

                     E (Thermal)             CV                S
                      KCal/Mol        Cal/Mol-Kelvin    Cal/Mol-Kelvin
 Total                   90.176             37.784            104.890
 Electronic               0.000              0.000              0.000
 Translational            0.889              2.981             41.929
 Rotational               0.889              2.981             31.800
 Vibrational             88.399             31.823             31.161
 Vibration     1          0.595              1.979              5.004
 Vibration     2          0.596              1.975              4.614
 Vibration     3          0.603              1.953              3.564
 Vibration     4          0.615              1.911              2.777
 Vibration     5          0.638              1.840              2.133
 Vibration     6          0.650              1.801              1.910
 Vibration     7          0.654              1.788              1.846
 Vibration     8          0.679              1.714              1.547
 Vibration     9          0.686              1.693              1.477
 Vibration    10          0.785              1.420              0.882
 Vibration    11          0.806              1.367              0.804
 Vibration    12          0.814              1.347              0.777
 Vibration    13          0.869              1.219              0.624
 Vibration    14          0.902              1.146              0.550
 Vibration    15          0.920              1.109              0.515

 Optimization completed.
    -- Stationary point found.
 Normal termination of Gaussian 16 at Wed Sep 20 05:52:44 2023.
