 Gaussian 16, Revision B.01,
 Gaussian 16:  EM64L-G16RevB.01 20-Dec-2017

 ----------------------------------------------------------------------
 # opt freq rb3lyp/gen nosymm empiricaldispersion=gd3 pseudo=read scf=m
 axcycle=1000 volume
 ----------------------------------------------------------------------

 -----
 reac1
 -----
 Symbolic Z-matrix:
 Charge =  0 Multiplicity = 1

 SCF Done:  E(RB3LYP) =  -397.689638664     A.U. after   15 cycles
 SCF Done:  E(RB3LYP) =  -397.689638611     A.U. after   10 cycles
 SCF Done:  E(RB3LYP) =  -397.689638632     A.U. after   10 cycles
 Optimization completed.
    -- Stationary point found.
 Normal termination of Gaussian 16 at Sat Sep 16 07:11:34 2023.

 ------------------------------------------------------------------
 #N Geom=AllCheck Guess=TCheck SCRF=Check GenChk RB3LYP/ChkBas Freq
 ------------------------------------------------------------------

 Structure from the checkpoint file:  "ARYLHALIDE-coch3-gen-Br-vol.chk"
 -----
 reac1
 -----
 Charge =  0 Multiplicity = 1

                          Input orientation:
 ---------------------------------------------------------------------
 Center     Atomic      Atomic             Coordinates (Angstroms)
 Number     Number       Type             X           Y           Z
 ---------------------------------------------------------------------
      1          6           0       -0.451324    0.019596   -0.000012
      2          6           0        0.206907    1.251078    0.000086
      3          6           0        0.248451   -1.185701   -0.000190
      4          6           0        1.599830    1.266704    0.000000
      5          1           0       -0.357780    2.177335    0.000225
      6          6           0        1.644782   -1.152102   -0.000271
      7          1           0       -0.281940   -2.131902   -0.000262
      8          6           0        2.336127    0.069807   -0.000189
      9          1           0        2.139185    2.208756    0.000066
     10          1           0        2.184720   -2.093677   -0.000406
     11          6           0        3.834916    0.150208   -0.000302
     12          8           0        4.399733    1.236068    0.000432
     13          6           0        4.639565   -1.138039    0.000222
     14          1           0        4.408191   -1.744510    0.884702
     15          1           0        4.409040   -1.744647   -0.884383
     16          1           0        5.702526   -0.889270    0.000713
     17         35           0       -2.398820   -0.015324    0.000109
 ---------------------------------------------------------------------

 SCF Done:  E(RB3LYP) =  -397.689638632     A.U. after    1 cycles

 Alpha  occ. eigenvalues --  -19.15305 -10.29207 -10.27148 -10.22489 -10.22281
 Alpha  occ. eigenvalues --  -10.22086 -10.22021 -10.21726 -10.19642  -1.05410
 Alpha  occ. eigenvalues --   -0.89862  -0.83912  -0.78453  -0.77608  -0.74242
 Alpha  occ. eigenvalues --   -0.64319  -0.63754  -0.57669  -0.51795  -0.49422
 Alpha  occ. eigenvalues --   -0.47920  -0.46342  -0.45921  -0.45581  -0.43449
 Alpha  occ. eigenvalues --   -0.40831  -0.40585  -0.37964  -0.37671  -0.37615
 Alpha  occ. eigenvalues --   -0.32691  -0.30606  -0.28549  -0.26834  -0.26569
 Alpha virt. eigenvalues --   -0.07925  -0.03981  -0.03111  -0.00360   0.00984
 Alpha virt. eigenvalues --    0.01207   0.02107   0.03714   0.03952   0.04020
 Alpha virt. eigenvalues --    0.05010   0.05616   0.06253   0.06707   0.07535

 Mulliken charges:
               1
     1  C    0.225946
     2  C   -0.315983
     3  C   -0.445585
     4  C    0.001632
     5  H    0.205725
     6  C   -0.857353
     7  H    0.203163
     8  C    0.620336
     9  H    0.227390
    10  H    0.189864
    11  C    0.493402
    12  O   -0.422279
    13  C   -0.924107
    14  H    0.227068
    15  H    0.227050
    16  H    0.244101
    17  Br   0.099629
 Sum of Mulliken charges =   0.00000

 Dipole moment (field-independent basis, Debye):
    X=             -0.2253    Y=             -2.4682    Z=             -0.0008  Tot=              2.4785
 Quadrupole moment (field-independent basis, Debye-Ang):
   XX=            -77.2053   YY=            -63.9117   ZZ=            -70.1790
   XY=            -12.3497   XZ=             -0.0039   YZ=             -0.0006

  Exact polarizability: 175.188   1.901 108.399   0.000   0.006  63.060
 Approx polarizability: 242.384  13.091 181.290   0.000   0.017  90.395

                      1                      2                      3
                      A                      A                      A
 Frequencies --     59.7588                75.8093               158.2163
 Red. masses --      3.7669                 8.5077                 6.3398
 Frc consts  --      0.0079                 0.0288                 0.0935
 IR Inten    --      3.1175                 1.4517                 3.2577

                      4                      5                      6
                      A                      A                      A
 Frequencies --    184.8354               240.6222               241.4765
 Red. masses --      1.0333                11.6841                 6.0645
 Frc consts  --      0.0208                 0.3986                 0.2083
 IR Inten    --      0.1521                 2.6202                 0.5084

                      7                      8                      9
                      A                      A                      A
 Frequencies --    292.0247               417.0847               423.3089
 Red. masses --      4.6558                 2.9198                 3.8847
 Frc consts  --      0.2339                 0.2993                 0.4101
 IR Inten    --      3.0478                 0.0296                 6.5908

                     10                     11                     12
                      A                      A                      A
 Frequencies --    464.4699               493.9663               596.5619
 Red. masses --      3.4105                 6.1983                 2.5067
 Frc consts  --      0.4335                 0.8911                 0.5256
 IR Inten    --      7.3854                12.3236                13.4564

                     13                     14                     15
                      A                      A                      A
 Frequencies --    614.0855               637.3229               718.0511
 Red. masses --      4.3727                 7.0965                 3.6383
 Frc consts  --      0.9715                 1.6983                 1.1053
 IR Inten    --      8.2589                 1.3445                 2.2950

                     16                     17                     18
                      A                      A                      A
 Frequencies --    755.7506               832.1840               849.6018
 Red. masses --      5.8342                 1.3465                 1.3160
 Frc consts  --      1.9633                 0.5494                 0.5597
 IR Inten    --     33.1570                29.3222                20.1293

                     19                     20                     21
                      A                      A                      A
 Frequencies --    969.2242               970.0500               998.5067
 Red. masses --      2.2818                 1.3176                 1.3410
 Frc consts  --      1.2629                 0.7305                 0.7878
 IR Inten    --     60.7649                 0.1255                 0.5473

                     22                     23                     24
                      A                      A                      A
 Frequencies --   1019.6591              1055.7910              1078.9385
 Red. masses --      5.0474                 1.8592                 3.5905
 Frc consts  --      3.0919                 1.2210                 2.4626
 IR Inten    --     54.7075                 0.7343                21.7538

                     25                     26                     27
                      A                      A                      A
 Frequencies --   1102.1560              1153.2719              1225.3049
 Red. masses --      1.9572                 1.3857                 1.1571
 Frc consts  --      1.4008                 1.0859                 1.0235
 IR Inten    --     14.2055                 4.6391                21.8372

                     28                     29                     30
                      A                      A                      A
 Frequencies --   1285.6343              1339.3418              1345.1967
 Red. masses --      3.6281                 1.5488                 4.3016
 Frc consts  --      3.5332                 1.6369                 4.5862
 IR Inten    --    196.1885                 1.4790                 8.7565

                     31                     32                     33
                      A                      A                      A
 Frequencies --   1408.3887              1437.6429              1495.5248
 Red. masses --      1.3319                 2.5367                 1.0676
 Frc consts  --      1.5566                 3.0891                 1.4068
 IR Inten    --     29.4676                39.0183                16.2339

                     34                     35                     36
                      A                      A                      A
 Frequencies --   1503.7268              1528.1324              1614.3086
 Red. masses --      1.0469                 2.1455                 6.7159
 Frc consts  --      1.3948                 2.9520                10.3117
 IR Inten    --     12.4953                11.4636                20.3112

                     37                     38                     39
                      A                      A                      A
 Frequencies --   1633.5787              1757.1370              3047.6008
 Red. masses --      5.2124                10.6006                 1.0384
 Frc consts  --      8.1954                19.2838                 5.6824
 IR Inten    --    128.9180               216.4077                 3.3220

                     40                     41                     42
                      A                      A                      A
 Frequencies --   3106.4850              3163.4803              3209.9095
 Red. masses --      1.0999                 1.1011                 1.0880
 Frc consts  --      6.2538                 6.4925                 6.6050
 IR Inten    --      8.1216                11.3814                 3.5476

                     43                     44                     45
                      A                      A                      A
 Frequencies --   3215.4990              3227.2673              3229.1559
 Red. masses --      1.0884                 1.0943                 1.0952
 Frc consts  --      6.6304                 6.7152                 6.7284
 IR Inten    --      0.3705                 5.0939                 0.9961

 - Thermochemistry -
 -------------------
 Temperature   298.150 Kelvin.  Pressure   1.00000 Atm.
 Atom     1 has atomic number  6 and mass  12.00000

 Molecular mass:   197.96803 amu.
 Principal axes and moments of inertia in atomic units:
                           1         2         3
     Eigenvalues --   492.995994966.527075448.25934
           X            0.99994  -0.01105   0.00000
           Y            0.01105   0.99994  -0.00010
           Z            0.00000   0.00010   1.00000
 This molecule is an asymmetric top.
 Rotational symmetry number  1.
 Warning -- assumption of classical behavior for rotation
           may cause significant error
 Rotational temperatures (Kelvin)      0.17569     0.01744     0.01590
 Rotational constants (GHZ):           3.66076     0.36338     0.33125
 Zero-point vibrational energy     336007.4 (Joules/Mol)
                                   80.30769 (Kcal/Mol)
 Warning -- explicit consideration of  13 degrees of freedom as
           vibrations may cause significant error
 Vibrational temperatures:     85.98   109.07   227.64   265.94   346.20
          (Kelvin)            347.43   420.16   600.09   609.05   668.27
                              710.71   858.32   883.53   916.97  1033.12
                             1087.36  1197.33  1222.39  1394.50  1395.69
                             1436.63  1467.06  1519.05  1552.35  1585.76
                             1659.30  1762.94  1849.74  1927.01  1935.44
                             2026.36  2068.45  2151.73  2163.53  2198.64
                             2322.63  2350.36  2528.13  4384.82  4469.54
                             4551.54  4618.34  4626.39  4643.32  4646.04

 Zero-point correction=                           0.127978 (Hartree/Particle)
 Thermal correction to Energy=                    0.137235
 Thermal correction to Enthalpy=                  0.138179
 Thermal correction to Gibbs Free Energy=         0.091952
 Sum of electronic and zero-point Energies=           -397.561660
 Sum of electronic and thermal Energies=              -397.552403
 Sum of electronic and thermal Enthalpies=            -397.551459
 Sum of electronic and thermal Free Energies=         -397.597687

                     E (Thermal)             CV                S
                      KCal/Mol        Cal/Mol-Kelvin    Cal/Mol-Kelvin
 Total                   86.116             33.865             97.294
 Electronic               0.000              0.000              0.000
 Translational            0.889              2.981             41.754
 Rotational               0.889              2.981             30.968
 Vibrational             84.339             27.904             24.573
 Vibration     1          0.597              1.973              4.465
 Vibration     2          0.599              1.965              3.997
 Vibration     3          0.621              1.893              2.571
 Vibration     4          0.631              1.861              2.279
 Vibration     5          0.658              1.778              1.798
 Vibration     6          0.658              1.777              1.792
 Vibration     7          0.687              1.689              1.462
 Vibration     8          0.780              1.433              0.902
 Vibration     9          0.785              1.420              0.881
 Vibration    10          0.822              1.329              0.753
 Vibration    11          0.850              1.263              0.673
 Vibration    12          0.954              1.039              0.456
 Vibration    13          0.973              1.002              0.426

 Optimization completed.
    -- Stationary point found.
 Normal termination of Gaussian 16 at Sat Sep 16 07:13:18 2023.
