 Gaussian 16, Revision B.01,
 Gaussian 16:  EM64L-G16RevB.01 20-Dec-2017

 ----------------------------------------------------------------------
 # opt freq rb3lyp/gen nosymm empiricaldispersion=gd3 pseudo=read scf=m
 axcycle=1000 volume
 ----------------------------------------------------------------------

 -----
 reac1
 -----
 Symbolic Z-matrix:
 Charge =  0 Multiplicity = 1

 SCF Done:  E(RB3LYP) =  -486.903002314     A.U. after   16 cycles
 Optimization completed.
    -- Stationary point found.
 Normal termination of Gaussian 16 at Mon Sep 18 06:36:56 2023.

 ------------------------------------------------------------------
 #N Geom=AllCheck Guess=TCheck SCRF=Check GenChk RB3LYP/ChkBas Freq
 ------------------------------------------------------------------

 Structure from the checkpoint file:  "ARYLHALIDE-NO2-gen-o-ch3-volume.chk"
 -----
 reac1
 -----
 Charge =  0 Multiplicity = 1

                          Input orientation:
 ---------------------------------------------------------------------
 Center     Atomic      Atomic             Coordinates (Angstroms)
 Number     Number       Type             X           Y           Z
 ---------------------------------------------------------------------
      1          6           0       -0.448799    0.024157    0.066795
      2          6           0        0.224064    1.247593    0.154877
      3          6           0        0.234980   -1.201480   -0.038604
      4          6           0        1.616650    1.279502    0.139760
      5          1           0       -0.332192    2.175074    0.235130
      6          6           0        1.635410   -1.149799   -0.052364
      7          6           0        2.301564    0.070705    0.035570
      8          1           0        2.160230    2.214150    0.206698
      9          1           0        2.213747   -2.063126   -0.131860
     10          7           0        3.775391    0.081643    0.017698
     11          8           0        4.358375   -1.000394   -0.075232
     12          8           0        4.341094    1.173705    0.096811
     13         53           0       -2.596312    0.076848    0.097897
     14          6           0       -0.466608   -2.533236   -0.134631
     15          1           0       -1.098750   -2.710951    0.743299
     16          1           0       -1.121113   -2.572630   -1.013273
     17          1           0        0.256543   -3.350419   -0.208192
 ---------------------------------------------------------------------

 SCF Done:  E(RB3LYP) =  -486.903002314     A.U. after    1 cycles

 Alpha  occ. eigenvalues --  -19.19950 -19.19944 -14.58747 -10.27422 -10.26880
 Alpha  occ. eigenvalues --  -10.24589 -10.23444 -10.23354 -10.23305 -10.20556
 Alpha  occ. eigenvalues --   -1.24205  -1.06967  -0.91502  -0.83900  -0.81008
 Alpha  occ. eigenvalues --   -0.74591  -0.72827  -0.68519  -0.64486  -0.59871
 Alpha  occ. eigenvalues --   -0.57175  -0.54797  -0.53385  -0.50456  -0.49721
 Alpha  occ. eigenvalues --   -0.47787  -0.45364  -0.45183  -0.41640  -0.40051
 Alpha  occ. eigenvalues --   -0.39215  -0.37444  -0.32891  -0.32715  -0.32549
 Alpha  occ. eigenvalues --   -0.31003  -0.28990  -0.28872  -0.27007
 Alpha virt. eigenvalues --   -0.11162  -0.06284  -0.04831  -0.02640  -0.00363
 Alpha virt. eigenvalues --    0.00732   0.01813   0.03288   0.03334   0.03555
 Alpha virt. eigenvalues --    0.04674   0.05136   0.06077   0.06764   0.06927

 Mulliken charges:
               1
     1  C    0.482872
     2  C   -0.100092
     3  C    0.394150
     4  C   -0.133938
     5  H    0.208989
     6  C   -0.805119
     7  C   -0.309519
     8  H    0.232489
     9  H    0.228861
    10  N   -0.112792
    11  O   -0.100849
    12  O   -0.101356
    13  I    0.116112
    14  C   -0.703862
    15  H    0.244212
    16  H    0.244217
    17  H    0.215627
 Sum of Mulliken charges =   0.00000

 Dipole moment (field-independent basis, Debye):
    X=             -3.9752    Y=             -0.6242    Z=              0.0015  Tot=              4.0239
 Quadrupole moment (field-independent basis, Debye-Ang):
   XX=           -103.0377   YY=            -72.4647   ZZ=            -79.4711
   XY=              0.0112   XZ=              0.0648   YZ=              0.5188

  Exact polarizability: 196.291   3.050 125.356  -1.370   4.408  69.397
 Approx polarizability: 282.940   1.034 220.202  -2.239   9.519 100.296

                      1                      2                      3
                      A                      A                      A
 Frequencies --     50.3075                71.0793               159.6730
 Red. masses --      9.9746                 8.4738                 9.7528
 Frc consts  --      0.0149                 0.0252                 0.1465
 IR Inten    --      0.1645                 2.2796                 1.6718

                      4                      5                      6
                      A                      A                      A
 Frequencies --    180.5201               201.4639               207.6545
 Red. masses --      1.9051                14.8494                 1.3833
 Frc consts  --      0.0366                 0.3551                 0.0351
 IR Inten    --      0.2212                 0.6178                 0.2610

                      7                      8                      9
                      A                      A                      A
 Frequencies --    246.9577               274.0234               390.5063
 Red. masses --      4.3114                 5.1206                 5.0865
 Frc consts  --      0.1549                 0.2265                 0.4570
 IR Inten    --      0.7102                 5.5776                 1.4195

                     10                     11                     12
                      A                      A                      A
 Frequencies --    441.9908               464.1544               523.0613
 Red. masses --      3.0373                 6.6115                 4.2223
 Frc consts  --      0.3496                 0.8392                 0.6806
 IR Inten    --      3.7565                 6.8077                 0.1199

                     13                     14                     15
                      A                      A                      A
 Frequencies --    534.5902               562.8425               680.5254
 Red. masses --      5.1738                 5.9212                 4.4274
 Frc consts  --      0.8712                 1.1052                 1.2081
 IR Inten    --      4.4438                 1.8284                 0.2194

                     16                     17                     18
                      A                      A                      A
 Frequencies --    690.1198               747.0959               810.6531
 Red. masses --      7.2964                 4.7004                 9.3281
 Frc consts  --      2.0474                 1.5458                 3.6117
 IR Inten    --      2.5356                24.4642                32.4525

                     19                     20                     21
                      A                      A                      A
 Frequencies --    843.8242               923.1185               932.5617
 Red. masses --      1.4210                 1.3979                 5.6742
 Frc consts  --      0.5961                 0.7019                 2.9074
 IR Inten    --     14.6939                12.6812                54.0981

                     22                     23                     24
                      A                      A                      A
 Frequencies --    983.9039              1021.3818              1037.7634
 Red. masses --      1.3234                 7.2535                 1.4728
 Frc consts  --      0.7548                 4.4584                 0.9345
 IR Inten    --      0.3654                72.4624                 9.9404

                     25                     26                     27
                      A                      A                      A
 Frequencies --   1075.3170              1137.4525              1172.0700
 Red. masses --      1.4978                 1.8412                 1.7254
 Frc consts  --      1.0204                 1.4035                 1.3966
 IR Inten    --      2.6312                22.9230                 2.0326

                     28                     29                     30
                      A                      A                      A
 Frequencies --   1235.9333              1310.6126              1344.2324
 Red. masses --      2.4635                 1.3526                 8.0768
 Frc consts  --      2.2172                 1.3689                 8.5988
 IR Inten    --     10.2611                 6.7455                21.6017

                     31                     32                     33
                      A                      A                      A
 Frequencies --   1382.1531              1434.3672              1445.6136
 Red. masses --     12.9435                 3.1222                 1.2233
 Frc consts  --     14.5684                 3.7847                 1.5062
 IR Inten    --    427.7995                 0.7474                 3.9947

                     34                     35                     36
                      A                      A                      A
 Frequencies --   1496.9517              1509.6655              1522.9059
 Red. masses --      2.0437                 1.0417                 1.2021
 Frc consts  --      2.6983                 1.3988                 1.6426
 IR Inten    --     22.5024                11.8748                25.5285

                     37                     38                     39
                      A                      A                      A
 Frequencies --   1591.5424              1619.3566              1654.4780
 Red. masses --     10.4219                 5.5526                 8.6659
 Frc consts  --     15.5537                 8.5788                13.9762
 IR Inten    --    194.5879                93.1897                41.8336

                     40                     41                     42
                      A                      A                      A
 Frequencies --   3051.0045              3106.6566              3134.9191
 Red. masses --      1.0369                 1.1008                 1.1021
 Frc consts  --      5.6868                 6.2596                 6.3816
 IR Inten    --     11.8555                 7.1365                14.8489

                     43                     44                     45
                      A                      A                      A
 Frequencies --   3223.1888              3236.3590              3249.4950
 Red. masses --      1.0908                 1.0910                 1.0937
 Frc consts  --      6.6769                 6.7327                 6.8041
 IR Inten    --      1.1690                 1.7702                 2.2717

 - Thermochemistry -
 -------------------
 Temperature   298.150 Kelvin.  Pressure   1.00000 Atm.
 Atom     1 has atomic number  6 and mass  12.00000

 Molecular mass:   262.94025 amu.
 Principal axes and moments of inertia in atomic units:
                           1         2         3
     Eigenvalues --   815.204306380.857057184.88575
           X            0.99991  -0.00396   0.01260
           Y            0.00494   0.99689  -0.07865
           Z           -0.01225   0.07870   0.99682
 This molecule is an asymmetric top.
 Rotational symmetry number  1.
 Warning -- assumption of classical behavior for rotation
           may cause significant error
 Rotational temperatures (Kelvin)      0.10625     0.01357     0.01206
 Rotational constants (GHZ):           2.21385     0.28284     0.25119
 Zero-point vibrational energy     316496.3 (Joules/Mol)
                                   75.64443 (Kcal/Mol)
 Warning -- explicit consideration of  14 degrees of freedom as
           vibrations may cause significant error
 Vibrational temperatures:     72.38   102.27   229.73   259.73   289.86
          (Kelvin)            298.77   355.32   394.26   561.85   635.93
                              667.81   752.57   769.16   809.80   979.12
                              992.93  1074.90  1166.35  1214.07  1328.16
                             1341.75  1415.62  1469.54  1493.11  1547.14
                             1636.54  1686.35  1778.23  1885.68  1934.05
                             1988.61  2063.73  2079.92  2153.78  2172.07
                             2191.12  2289.87  2329.89  2380.42  4389.72
                             4469.79  4510.45  4637.45  4656.40  4675.30

 Zero-point correction=                           0.120547 (Hartree/Particle)
 Thermal correction to Energy=                    0.130529
 Thermal correction to Enthalpy=                  0.131473
 Thermal correction to Gibbs Free Energy=         0.082855
 Sum of electronic and zero-point Energies=           -486.782455
 Sum of electronic and thermal Energies=              -486.772474
 Sum of electronic and thermal Enthalpies=            -486.771529
 Sum of electronic and thermal Free Energies=         -486.820147

                     E (Thermal)             CV                S
                      KCal/Mol        Cal/Mol-Kelvin    Cal/Mol-Kelvin
 Total                   81.908             36.078            102.324
 Electronic               0.000              0.000              0.000
 Translational            0.889              2.981             42.600
 Rotational               0.889              2.981             31.991
 Vibrational             80.131             30.117             27.733
 Vibration     1          0.595              1.977              4.805
 Vibration     2          0.598              1.968              4.123
 Vibration     3          0.622              1.892              2.554
 Vibration     4          0.629              1.866              2.323
 Vibration     5          0.638              1.838              2.120
 Vibration     6          0.641              1.829              2.064
 Vibration     7          0.661              1.768              1.752
 Vibration     8          0.676              1.721              1.571
 Vibration     9          0.758              1.490              0.998
 Vibration    10          0.802              1.379              0.820
 Vibration    11          0.822              1.330              0.754
 Vibration    12          0.878              1.199              0.603
 Vibration    13          0.890              1.174              0.577
 Vibration    14          0.919              1.112              0.518

 Optimization completed.
    -- Stationary point found.
 Normal termination of Gaussian 16 at Mon Sep 18 06:38:22 2023.
