 Gaussian 16, Revision B.01,
 Gaussian 16:  EM64L-G16RevB.01 20-Dec-2017

 ----------------------------------------------------------------------
 # opt freq b3lyp/gen empiricaldispersion=gd3 pseudo=read scf=maxcycle=
 1000 volume
 ----------------------------------------------------------------------

 -------------------
 Title Card Required
 -------------------
 Symbolic Z-matrix:
 Charge =  0 Multiplicity = 1

 SCF Done:  E(RB3LYP) =  -360.490505525     A.U. after   14 cycles
 SCF Done:  E(RB3LYP) =  -360.490505332     A.U. after    9 cycles
 SCF Done:  E(RB3LYP) =  -360.490505559     A.U. after   10 cycles
 Optimization completed.
    -- Stationary point found.
 Normal termination of Gaussian 16 at Wed Sep 20 06:18:32 2023.

 ------------------------------------------------------------------
 #N Geom=AllCheck Guess=TCheck SCRF=Check GenChk RB3LYP/ChkBas Freq
 ------------------------------------------------------------------

 Structure from the checkpoint file:  "CH3br-Br-vol.chk"
 -------------------
 Title Card Required
 -------------------
 Charge =  0 Multiplicity = 1

                         Standard orientation:
 ---------------------------------------------------------------------
 Center     Atomic      Atomic             Coordinates (Angstroms)
 Number     Number       Type             X           Y           Z
 ---------------------------------------------------------------------
      1          6           0       -2.987589    1.203119   -0.010672
      2          6           0       -1.594004    1.211133   -0.006493
      3          6           0       -0.874455    0.000229   -0.003588
      4          6           0       -1.593781   -1.210841   -0.006493
      5          6           0       -2.987343   -1.203110   -0.010675
      6          6           0       -3.710208   -0.000056   -0.010002
      7          1           0       -3.524599    2.149323   -0.016214
      8          1           0       -1.052031    2.152419   -0.009049
      9          1           0       -1.051614   -2.152016   -0.009051
     10          1           0       -3.524183   -2.149415   -0.016227
     11          6           0        0.554660    0.000379   -0.001759
     12          6           0        1.767389    0.000147   -0.000350
     13         35           0        3.596755   -0.000090    0.003303
     14          6           0       -5.220806   -0.000314    0.021057
     15          1           0       -5.632765   -0.885922   -0.475627
     16          1           0       -5.591390   -0.003131    1.055382
     17          1           0       -5.633005    0.887769   -0.470958
 ---------------------------------------------------------------------

 SCF Done:  E(RB3LYP) =  -360.490505559     A.U. after    1 cycles

 The electronic state is 1-A.
 Alpha  occ. eigenvalues --  -10.23148 -10.22131 -10.20960 -10.20283 -10.20172
 Alpha  occ. eigenvalues --  -10.20172 -10.19680 -10.19680 -10.18787  -0.87526
 Alpha  occ. eigenvalues --   -0.86854  -0.80250  -0.75838  -0.74598  -0.69633
 Alpha  occ. eigenvalues --   -0.62083  -0.60899  -0.54844  -0.49070  -0.47839
 Alpha  occ. eigenvalues --   -0.47191  -0.43647  -0.43250  -0.43067  -0.39978
 Alpha  occ. eigenvalues --   -0.38519  -0.36475  -0.36334  -0.35730  -0.35234
 Alpha  occ. eigenvalues --   -0.29763  -0.26789  -0.26523  -0.23178
 Alpha virt. eigenvalues --   -0.04107  -0.02890  -0.02194   0.00359   0.01623
 Alpha virt. eigenvalues --    0.02188   0.03370   0.03556   0.03909   0.04988
 Alpha virt. eigenvalues --    0.05067   0.05142   0.06013   0.06057   0.07114

 Mulliken charges:
               1
     1  C   -0.182728
     2  C   -0.123772
     3  C   -0.439887
     4  C   -0.123075
     5  C   -0.177496
     6  C    0.351329
     7  H    0.176784
     8  H    0.192597
     9  H    0.192599
    10  H    0.176801
    11  C    0.439231
    12  C   -0.554184
    13  Br   0.274140
    14  C   -0.849642
    15  H    0.209566
    16  H    0.228263
    17  H    0.209472
 Sum of Mulliken charges =   0.00000

 Dipole moment (field-independent basis, Debye):
    X=             -1.6313    Y=             -0.0007    Z=              0.0451  Tot=              1.6319
 Quadrupole moment (field-independent basis, Debye-Ang):
   XX=            -54.6104   YY=            -63.6347   ZZ=            -71.6858
   XY=              0.0014   XZ=             -0.2065   YZ=              0.0000

  Exact polarizability: 220.366   0.002 100.405  -0.565   0.000  63.844
 Approx polarizability: 305.871  -0.003 160.422  -0.699   0.000  89.581

                      1                      2                      3
                      A                      A                      A
 Frequencies --     15.9219                54.4495                60.2590
 Red. masses --      1.0398                 5.6514                 6.1211
 Frc consts  --      0.0002                 0.0099                 0.0131
 IR Inten    --      0.3401                 1.5157                 0.8535

                      4                      5                      6
                      A                      A                      A
 Frequencies --    136.8236               207.5658               239.0787
 Red. masses --      6.5833                 8.9208                 5.2688
 Frc consts  --      0.0726                 0.2264                 0.1774
 IR Inten    --      1.7973                 2.8567                 3.3081

                      7                      8                      9
                      A                      A                      A
 Frequencies --    245.6636               346.5379               410.0085
 Red. masses --      9.9074                 2.8496                 4.6959
 Frc consts  --      0.3523                 0.2016                 0.4651
 IR Inten    --      0.6490                 0.3085                 1.3076

                     10                     11                     12
                      A                      A                      A
 Frequencies --    414.2758               514.1202               538.2902
 Red. masses --      2.9444                 6.7053                 5.7266
 Frc consts  --      0.2977                 1.0442                 0.9776
 IR Inten    --      0.0036                 0.0733                 8.8075

                     13                     14                     15
                      A                      A                      A
 Frequencies --    544.1441               657.7688               721.7978
 Red. masses --      3.2219                 7.0271                 3.3025
 Frc consts  --      0.5621                 1.7913                 1.0137
 IR Inten    --     19.5907                 0.0137                 3.0564

                     16                     17                     18
                      A                      A                      A
 Frequencies --    763.5833               832.8821               849.9477
 Red. masses --      5.0970                 1.4751                 1.2487
 Frc consts  --      1.7510                 0.6029                 0.5315
 IR Inten    --      4.0706                42.5666                 0.0180

                     19                     20                     21
                      A                      A                      A
 Frequencies --    854.8729               967.7307               977.0737
 Red. masses --      6.5270                 1.2947                 1.3590
 Frc consts  --      2.8104                 0.7144                 0.7644
 IR Inten    --      1.2293                 0.5256                 0.0006

                     22                     23                     24
                      A                      A                      A
 Frequencies --   1021.5268              1039.4818              1071.3207
 Red. masses --      1.4026                 2.8760                 1.5308
 Frc consts  --      0.8624                 1.8309                 1.0351
 IR Inten    --      0.0215                 2.0392                13.6202

                     25                     26                     27
                      A                      A                      A
 Frequencies --   1154.4066              1223.1628              1236.3858
 Red. masses --      1.3490                 1.1990                 3.6147
 Frc consts  --      1.0592                 1.0569                 3.2556
 IR Inten    --      4.7383                 2.4545                 1.5414

                     28                     29                     30
                      A                      A                      A
 Frequencies --   1261.2873              1325.4353              1349.8519
 Red. masses --      3.2247                 4.6382                 1.4840
 Frc consts  --      3.0225                 4.8008                 1.5932
 IR Inten    --      0.6683                 0.0678                 0.0772

                     31                     32                     33
                      A                      A                      A
 Frequencies --   1439.2457              1447.8850              1510.8914
 Red. masses --      1.2338                 2.4832                 1.1048
 Frc consts  --      1.5058                 3.0671                 1.4859
 IR Inten    --      0.1009                 1.4288                10.2428

                     34                     35                     36
                      A                      A                      A
 Frequencies --   1513.4369              1553.2093              1604.1192
 Red. masses --      1.0524                 2.4535                 5.1917
 Frc consts  --      1.4203                 3.4874                 7.8710
 IR Inten    --      7.2073                29.0379                 0.4846

                     37                     38                     39
                      A                      A                      A
 Frequencies --   1661.5393              2298.2823              3034.3370
 Red. masses --      5.5412                12.0042                 1.0405
 Frc consts  --      9.0131                37.3586                 5.6444
 IR Inten    --      2.9012                17.1163                37.9982

                     40                     41                     42
                      A                      A                      A
 Frequencies --   3090.4204              3116.2053              3177.2768
 Red. masses --      1.0954                 1.1027                 1.0887
 Frc consts  --      6.1641                 6.3092                 6.4757
 IR Inten    --     20.0216                16.7692                13.1881

                     43                     44                     45
                      A                      A                      A
 Frequencies --   3177.9925              3206.8013              3208.3830
 Red. masses --      1.0888                 1.0932                 1.0942
 Frc consts  --      6.4791                 6.6238                 6.6361
 IR Inten    --     21.0648                19.9515                 0.0734

 - Thermochemistry -
 -------------------
 Temperature   298.150 Kelvin.  Pressure   1.00000 Atm.
 Atom     1 has atomic number  6 and mass  12.00000

 Molecular mass:   193.97311 amu.
 Principal axes and moments of inertia in atomic units:
                           1         2         3
     Eigenvalues --   327.663116948.486687264.82338
           X            1.00000   0.00000  -0.00034
           Y            0.00000   1.00000   0.00000
           Z            0.00034   0.00000   1.00000
 This molecule is an asymmetric top.
 Rotational symmetry number  1.
 Rotational temperatures (Kelvin)      0.26434     0.01247     0.01192
 Rotational constants (GHZ):           5.50792     0.25973     0.24842
 Zero-point vibrational energy     335407.1 (Joules/Mol)
                                   80.16421 (Kcal/Mol)
 Warning -- explicit consideration of  13 degrees of freedom as
           vibrations may cause significant error
 Vibrational temperatures:     22.91    78.34    86.70   196.86   298.64
          (Kelvin)            343.98   353.46   498.59   589.91   596.05
                              739.70   774.48   782.90   946.38  1038.51
                             1098.63  1198.33  1222.89  1229.97  1392.35
                             1405.79  1469.75  1495.58  1541.39  1660.93
                             1759.86  1778.88  1814.71  1907.01  1942.14
                             2070.75  2083.18  2173.84  2177.50  2234.72
                             2307.97  2390.58  3306.72  4365.73  4446.43
                             4483.52  4571.39  4572.42  4613.87  4616.15

 Zero-point correction=                           0.127750 (Hartree/Particle)
 Thermal correction to Energy=                    0.137717
 Thermal correction to Enthalpy=                  0.138662
 Thermal correction to Gibbs Free Energy=         0.089041
 Sum of electronic and zero-point Energies=           -360.362756
 Sum of electronic and thermal Energies=              -360.352788
 Sum of electronic and thermal Enthalpies=            -360.351844
 Sum of electronic and thermal Free Energies=         -360.401464

                     E (Thermal)             CV                S
                      KCal/Mol        Cal/Mol-Kelvin    Cal/Mol-Kelvin
 Total                   86.419             34.685            104.434
 Electronic               0.000              0.000              0.000
 Translational            0.889              2.981             41.693
 Rotational               0.889              2.981             31.181
 Vibrational             84.642             28.723             31.560
 Vibration     1          0.593              1.986              7.087
 Vibration     2          0.596              1.976              4.649
 Vibration     3          0.597              1.973              4.449
 Vibration     4          0.614              1.917              2.848
 Vibration     5          0.641              1.829              2.065
 Vibration     6          0.657              1.781              1.810
 Vibration     7          0.660              1.770              1.761
 Vibration     8          0.725              1.582              1.182
 Vibration     9          0.774              1.448              0.927
 Vibration    10          0.778              1.439              0.912
 Vibration    11          0.869              1.219              0.624
 Vibration    12          0.893              1.165              0.569
 Vibration    13          0.899              1.153              0.556

                           ! Non-Optimized Parameters !
 Normal termination of Gaussian 16 at Wed Sep 20 06:19:52 2023.
