 Gaussian 16, Revision B.01,
 Gaussian 16:  EM64L-G16RevB.01 20-Dec-2017

 ----------------------------------------------------------------------
 # opt freq b3lyp/gen empiricaldispersion=gd3 pseudo=read scf=maxcycle=
 1000 volume
 ----------------------------------------------------------------------

 -------------------
 Title Card Required
 -------------------
 Symbolic Z-matrix:
 Charge =  0 Multiplicity = 1

 SCF Done:  E(RB3LYP) =  -326.004483213     A.U. after   13 cycles
 Optimization completed.
    -- Stationary point found.
 Normal termination of Gaussian 16 at Wed Sep 20 06:05:38 2023.

 ------------------------------------------------------------------
 #N Geom=AllCheck Guess=TCheck SCRF=Check GenChk RB3LYP/ChkBas Freq
 ------------------------------------------------------------------

 Structure from the checkpoint file:  "MOLECULE24-vol.chk"
 -------------------
 Title Card Required
 -------------------
 Charge =  0 Multiplicity = 1

                         Standard orientation:
 ---------------------------------------------------------------------
 Center     Atomic      Atomic             Coordinates (Angstroms)
 Number     Number       Type             X           Y           Z
 ---------------------------------------------------------------------
      1          6           0        2.310133    0.298496   -0.000007
      2          6           0        1.186755    0.749227    0.000007
      3         35           0        4.019615   -0.365283   -0.000001
      4          6           0       -0.185870    1.259599    0.000003
      5          6           0       -1.249137    0.140094    0.000005
      6          1           0       -0.333453    1.903148   -0.879019
      7          1           0       -0.333455    1.903156    0.879019
      8          6           0       -2.678082    0.695278   -0.000003
      9          1           0       -1.095998   -0.498660   -0.879952
     10          1           0       -1.096005   -0.498648    0.879972
     11          1           0       -2.819377    1.341028    0.880151
     12          1           0       -2.819373    1.341013   -0.880169
     13          6           0       -3.749799   -0.402272    0.000004
     14          6           0       -5.183168    0.145468   -0.000007
     15          1           0       -3.608486   -1.048478    0.879687
     16          1           0       -3.608480   -1.048495   -0.879666
     17          6           0       -6.245791   -0.960111    0.000001
     18          1           0       -5.323608    0.790920    0.879425
     19          1           0       -5.323602    0.790902   -0.879453
     20          1           0       -7.260083   -0.542997   -0.000007
     21          1           0       -6.147428   -1.601334   -0.885586
     22          1           0       -6.147435   -1.601315    0.885602
 ---------------------------------------------------------------------

 SCF Done:  E(RB3LYP) =  -326.004483213     A.U. after    1 cycles

 The electronic state is 1-A.
 Alpha  occ. eigenvalues --  -10.22343 -10.21210 -10.19832 -10.18952 -10.18401
 Alpha  occ. eigenvalues --  -10.18073 -10.18042 -10.17197  -0.86440  -0.82315
 Alpha  occ. eigenvalues --   -0.79316  -0.74986  -0.70947  -0.65592  -0.59907
 Alpha  occ. eigenvalues --   -0.58440  -0.50457  -0.49243  -0.46422  -0.46274
 Alpha  occ. eigenvalues --   -0.43717  -0.41957  -0.40652  -0.39833  -0.37453
 Alpha  occ. eigenvalues --   -0.35949  -0.35384  -0.35338  -0.34132  -0.33609
 Alpha  occ. eigenvalues --   -0.33050  -0.32625  -0.25867  -0.25824
 Alpha virt. eigenvalues --   -0.02617   0.01185   0.01592   0.01887   0.02741
 Alpha virt. eigenvalues --    0.03131   0.03799   0.03949   0.04210   0.04963
 Alpha virt. eigenvalues --    0.05287   0.05847   0.06332   0.06651   0.06831

 Mulliken charges:
               1
     1  C   -0.694735
     2  C    0.904094
     3  Br   0.255409
     4  C   -0.981495
     5  C   -0.402939
     6  H    0.226494
     7  H    0.226494
     8  C   -0.236081
     9  H    0.208365
    10  H    0.208365
    11  H    0.191979
    12  H    0.191979
    13  C   -0.395407
    14  C   -0.174809
    15  H    0.193168
    16  H    0.193168
    17  C   -0.890455
    18  H    0.190764
    19  H    0.190764
    20  H    0.196472
    21  H    0.199204
    22  H    0.199204
 Sum of Mulliken charges =   0.00000

 Dipole moment (field-independent basis, Debye):
    X=             -1.4583    Y=              0.3135    Z=              0.0000  Tot=              1.4916
 Quadrupole moment (field-independent basis, Debye-Ang):
   XX=            -65.2662   YY=            -67.0886   ZZ=            -66.7588
   XY=             -2.5336   XZ=              0.0000   YZ=              0.0000

  Exact polarizability: 160.727 -12.324  90.230   0.000   0.000  78.155
 Approx polarizability: 186.189 -29.079 125.265  -0.001   0.000 111.838

                      1                      2                      3
                      A                      A                      A
 Frequencies --     40.0570                43.4414                73.1134
 Red. masses --      5.5368                 2.0181                 2.5382
 Frc consts  --      0.0052                 0.0022                 0.0080
 IR Inten    --      0.0457                 0.0216                 0.0523

                      4                      5                      6
                      A                      A                      A
 Frequencies --    122.0473               122.2347               152.4950
 Red. masses --      4.3605                 1.9566                 2.2256
 Frc consts  --      0.0383                 0.0172                 0.0305
 IR Inten    --      1.4148                 1.2114                 0.1445

                      7                      8                      9
                      A                      A                      A
 Frequencies --    174.4156               193.3479               244.6943
 Red. masses --      3.6835                 8.4895                 3.9833
 Frc consts  --      0.0660                 0.1870                 0.1405
 IR Inten    --      5.8928                 3.7529                 1.0118

                     10                     11                     12
                      A                      A                      A
 Frequencies --    255.6723               314.6760               342.9673
 Red. masses --      1.1239                 4.0674                 4.3162
 Frc consts  --      0.0433                 0.2373                 0.2991
 IR Inten    --      0.0088                 0.0452                 0.0867

                     13                     14                     15
                      A                      A                      A
 Frequencies --    419.8923               475.4185               576.6373
 Red. masses --      4.3297                 3.3697                 5.6256
 Frc consts  --      0.4498                 0.4487                 1.1021
 IR Inten    --      1.6668                 1.4817                 0.6716

                     16                     17                     18
                      A                      A                      A
 Frequencies --    746.6424               758.2135               811.4550
 Red. masses --      1.0627                 1.1069                 1.1975
 Frc consts  --      0.3490                 0.3749                 0.4646
 IR Inten    --      3.6685                 0.0060                 0.6274

                     19                     20                     21
                      A                      A                      A
 Frequencies --    905.2914               906.1935               996.5438
 Red. masses --      2.0443                 1.2549                 5.2568
 Frc consts  --      0.9871                 0.6071                 3.0758
 IR Inten    --      1.3249                 0.0770                 0.1387

                     22                     23                     24
                      A                      A                      A
 Frequencies --   1015.6968              1030.4840              1052.9806
 Red. masses --      1.2116                 3.2312                 3.7335
 Frc consts  --      0.7365                 2.0216                 2.4390
 IR Inten    --      0.2349                 0.1961                 0.6331

                     25                     26                     27
                      A                      A                      A
 Frequencies --   1067.8024              1077.2417              1141.4849
 Red. masses --      2.5767                 2.4808                 2.3684
 Frc consts  --      1.7310                 1.6962                 1.8182
 IR Inten    --      3.5762                 0.7042                 3.5586

                     28                     29                     30
                      A                      A                      A
 Frequencies --   1151.1382              1233.3674              1267.4604
 Red. masses --      1.3830                 1.5484                 1.2676
 Frc consts  --      1.0798                 1.3877                 1.1997
 IR Inten    --      0.0845                 0.0591                 3.9457

                     31                     32                     33
                      A                      A                      A
 Frequencies --   1293.3187              1328.4018              1334.2186
 Red. masses --      1.2681                 1.3212                 1.0954
 Frc consts  --      1.2498                 1.3737                 1.1489
 IR Inten    --      0.4956                 2.6067                 0.0070

                     34                     35                     36
                      A                      A                      A
 Frequencies --   1350.6115              1355.6549              1380.6191
 Red. masses --      1.0898                 1.0887                 1.3819
 Frc consts  --      1.1713                 1.1789                 1.5520
 IR Inten    --      0.0375                 1.0092                 6.5211

                     37                     38                     39
                      A                      A                      A
 Frequencies --   1414.0133              1426.0052              1437.2575
 Red. masses --      1.4564                 1.5896                 1.2469
 Frc consts  --      1.7156                 1.9046                 1.5176
 IR Inten    --      1.9965                 0.3857                 2.7801

                     40                     41                     42
                      A                      A                      A
 Frequencies --   1499.0295              1511.1973              1512.1250
 Red. masses --      1.0838                 1.0729                 1.0740
 Frc consts  --      1.4349                 1.4437                 1.4468
 IR Inten    --      2.2931                 0.0722                 0.5350

                     43                     44                     45
                      A                      A                      A
 Frequencies --   1518.0770              1523.6145              1526.4170
 Red. masses --      1.0687                 1.0398                 1.0819
 Frc consts  --      1.4511                 1.4221                 1.4851
 IR Inten    --      1.2390                 8.6392                 0.8055

                     46                     47                     48
                      A                      A                      A
 Frequencies --   1533.3987              2316.8163              3007.3909
 Red. masses --      1.0933                11.9142                 1.0581
 Frc consts  --      1.5147                37.6790                 5.6383
 IR Inten    --      8.7147                 6.2980                 1.4645

                     49                     50                     51
                      A                      A                      A
 Frequencies --   3010.7563              3021.1061              3023.2703
 Red. masses --      1.0583                 1.0598                 1.0582
 Frc consts  --      5.6522                 5.6992                 5.6989
 IR Inten    --     10.7728                60.5677                33.1679

                     52                     53                     54
                      A                      A                      A
 Frequencies --   3026.9327              3032.8148              3039.4059
 Red. masses --      1.1002                 1.0358                 1.1029
 Frc consts  --      5.9390                 5.6133                 6.0027
 IR Inten    --      0.6028                40.0183                 1.6820

                     55                     56                     57
                      A                      A                      A
 Frequencies --   3042.1420              3049.7318              3061.0912
 Red. masses --      1.0592                 1.1024                 1.1056
 Frc consts  --      5.7755                 6.0410                 6.1037
 IR Inten    --     54.5649                 5.2811                36.3874

                     58                     59                     60
                      A                      A                      A
 Frequencies --   3087.0139              3096.1501              3100.5308
 Red. masses --      1.1058                 1.1027                 1.1015
 Frc consts  --      6.2088                 6.2279                 6.2387
 IR Inten    --     58.4940                86.0338                48.9944

 - Thermochemistry -
 -------------------
 Temperature   298.150 Kelvin.  Pressure   1.00000 Atm.
 Atom     1 has atomic number  6 and mass  12.00000

 Molecular mass:   188.02006 amu.
 Principal axes and moments of inertia in atomic units:
                           1         2         3
     Eigenvalues --   307.263759378.405459618.68144
           X            0.99995   0.01027   0.00000
           Y           -0.01027   0.99995   0.00000
           Z            0.00000   0.00000   1.00000
 This molecule is an asymmetric top.
 Rotational symmetry number  1.
 Rotational temperatures (Kelvin)      0.28189     0.00924     0.00900
 Rotational constants (GHZ):           5.87359     0.19244     0.18763
 Zero-point vibrational energy     499872.9 (Joules/Mol)
                                  119.47249 (Kcal/Mol)
 Warning -- explicit consideration of  15 degrees of freedom as
           vibrations may cause significant error
 Vibrational temperatures:     57.63    62.50   105.19   175.60   175.87
          (Kelvin)            219.41   250.95   278.18   352.06   367.86
                              452.75   493.45   604.13   684.02   829.65
                             1074.25  1090.90  1167.50  1302.51  1303.81
                             1433.80  1461.36  1482.64  1515.00  1536.33
                             1549.91  1642.34  1656.23  1774.54  1823.59
                             1860.80  1911.27  1919.64  1943.23  1950.49
                             1986.40  2034.45  2051.70  2067.89  2156.77
                             2174.28  2175.61  2184.17  2192.14  2196.17
                             2206.22  3333.38  4326.96  4331.81  4346.70
                             4349.81  4355.08  4363.54  4373.03  4376.96
                             4387.88  4404.23  4441.52  4454.67  4460.97

 Zero-point correction=                           0.190392 (Hartree/Particle)
 Thermal correction to Energy=                    0.202101
 Thermal correction to Enthalpy=                  0.203045
 Thermal correction to Gibbs Free Energy=         0.150278
 Sum of electronic and zero-point Energies=           -325.814092
 Sum of electronic and thermal Energies=              -325.802382
 Sum of electronic and thermal Enthalpies=            -325.801438
 Sum of electronic and thermal Free Energies=         -325.854205

                     E (Thermal)             CV                S
                      KCal/Mol        Cal/Mol-Kelvin    Cal/Mol-Kelvin
 Total                  126.820             39.449            111.058
 Electronic               0.000              0.000              0.000
 Translational            0.889              2.981             41.600
 Rotational               0.889              2.981             31.694
 Vibrational            125.043             33.487             37.764
 Vibration     1          0.594              1.981              5.256
 Vibration     2          0.595              1.980              5.096
 Vibration     3          0.599              1.967              4.068
 Vibration     4          0.610              1.931              3.068
 Vibration     5          0.610              1.931              3.065
 Vibration     6          0.619              1.900              2.641
 Vibration     7          0.627              1.874              2.387
 Vibration     8          0.635              1.849              2.195
 Vibration     9          0.660              1.772              1.768
 Vibration    10          0.666              1.753              1.691
 Vibration    11          0.702              1.646              1.338
 Vibration    12          0.722              1.590              1.198
 Vibration    13          0.783              1.427              0.892
 Vibration    14          0.832              1.305              0.723
 Vibration    15          0.933              1.082              0.492

 Optimization completed.
    -- Stationary point found.
 Normal termination of Gaussian 16 at Wed Sep 20 06:07:00 2023.
