 Gaussian 16, Revision B.01,
 Gaussian 16:  EM64L-G16RevB.01 20-Dec-2017

 ----------------------------------------------------------------------
 # opt freq b3lyp/gen nosymm empiricaldispersion=gd3 pseudo=read scf=ma
 xcycle=1000 volume
 ----------------------------------------------------------------------

 ---------------------
 arylhalide-g16-volume
 ---------------------
 Symbolic Z-matrix:
 Charge =  0 Multiplicity = 1

 SCF Done:  E(RB3LYP) =  -447.580738405     A.U. after   15 cycles
 SCF Done:  E(RB3LYP) =  -447.580738186     A.U. after   11 cycles
 SCF Done:  E(RB3LYP) =  -447.580735653     A.U. after   12 cycles
 SCF Done:  E(RB3LYP) =  -447.580738460     A.U. after   11 cycles
 Optimization completed.
    -- Stationary point found.
 Normal termination of Gaussian 16 at Wed Sep 20 06:34:36 2023.

 ------------------------------------------------------------------
 #N Geom=AllCheck Guess=TCheck SCRF=Check GenChk RB3LYP/ChkBas Freq
 ------------------------------------------------------------------

 Structure from the checkpoint file:  "ARyLHALIDENO2-SOL-disp-g16-gas-vol.chk"
 ---------------------
 arylhalide-g16-volume
 ---------------------
 Charge =  0 Multiplicity = 1

                          Input orientation:
 ---------------------------------------------------------------------
 Center     Atomic      Atomic             Coordinates (Angstroms)
 Number     Number       Type             X           Y           Z
 ---------------------------------------------------------------------
      1          6           0        0.027319   -1.512013   -0.158424
      2          6           0        1.411385   -1.492182    0.015443
      3          6           0        2.117423   -0.300454    0.181444
      4          6           0        1.417882    0.906136    0.173101
      5          6           0        0.029841    0.895698   -0.000678
      6          6           0       -0.670048   -0.304163   -0.166385
      7          1           0       -0.488811   -2.456430   -0.284545
      8          1           0        3.192663   -0.322403    0.314098
      9          1           0        1.954113    1.840086    0.301028
     10          1           0       -1.746225   -0.304866   -0.300603
     11         53           0       -1.041416    2.747284   -0.013205
     12          7           0        2.149537   -2.767971    0.023976
     13          8           0        1.502694   -3.806074   -0.125482
     14          8           0        3.371114   -2.722988    0.179316
 ---------------------------------------------------------------------

 SCF Done:  E(RB3LYP) =  -447.580738460     A.U. after    1 cycles

 Alpha  occ. eigenvalues --  -19.20229 -19.20223 -14.59039 -10.27950 -10.27336
 Alpha  occ. eigenvalues --  -10.24013 -10.24012 -10.23868 -10.23868  -1.24509
 Alpha  occ. eigenvalues --   -1.07275  -0.91715  -0.83724  -0.79974  -0.74915
 Alpha  occ. eigenvalues --   -0.68955  -0.66039  -0.61568  -0.58036  -0.55097
 Alpha  occ. eigenvalues --   -0.53434  -0.50190  -0.49915  -0.48926  -0.47331
 Alpha  occ. eigenvalues --   -0.41981  -0.39970  -0.38106  -0.33170  -0.33038
 Alpha  occ. eigenvalues --   -0.33015  -0.31303  -0.30168  -0.29185  -0.27271
 Alpha virt. eigenvalues --   -0.11467  -0.06569  -0.05542  -0.02985  -0.00419
 Alpha virt. eigenvalues --    0.01197   0.01640   0.03313   0.03536   0.04274
 Alpha virt. eigenvalues --    0.04980   0.06279   0.06664   0.07483   0.07842

 Mulliken charges:
               1
     1  C   -0.141909
     2  C   -0.166267
     3  C   -0.141880
     4  C   -0.560145
     5  C    0.867234
     6  C   -0.560163
     7  H    0.234913
     8  H    0.234913
     9  H    0.210559
    10  H    0.210559
    11  I    0.116821
    12  N   -0.060657
    13  O   -0.121989
    14  O   -0.121990
 Sum of Mulliken charges =   0.00000

 Dipole moment (field-independent basis, Debye):
    X=             -1.8448    Y=              3.1883    Z=             -0.0204  Tot=              3.6836
 Quadrupole moment (field-independent basis, Debye-Ang):
   XX=            -75.1365   YY=            -85.1215   ZZ=            -73.1416
   XY=             12.2016   XZ=              0.6817   YZ=              0.5397

  Exact polarizability: 126.586 -34.446 166.281   6.051   2.662  60.944
 Approx polarizability: 214.273 -28.367 247.104  14.414   7.151  86.184

                      1                      2                      3
                      A                      A                      A
 Frequencies --     57.1858                73.5237               156.7705
 Red. masses --      7.9615                 9.6378                10.0965
 Frc consts  --      0.0153                 0.0307                 0.1462
 IR Inten    --      0.0000                 2.5488                 1.9704

                      4                      5                      6
                      A                      A                      A
 Frequencies --    207.2238               250.8439               305.0380
 Red. masses --     19.7600                 7.1886                 6.0408
 Frc consts  --      0.4999                 0.2665                 0.3312
 IR Inten    --      0.3380                 3.3256                 0.6516

                      7                      8                      9
                      A                      A                      A
 Frequencies --    417.4059               458.2668               467.5284
 Red. masses --      2.9364                 9.0878                 3.5028
 Frc consts  --      0.3014                 1.1245                 0.4511
 IR Inten    --      0.0000                10.3721                 8.7806

                     10                     11                     12
                      A                      A                      A
 Frequencies --    530.5620               633.2890               678.8764
 Red. masses --      7.7282                 7.1178                 4.5106
 Frc consts  --      1.2817                 1.6819                 1.2248
 IR Inten    --      1.6690                 0.7048                 3.9375

                     13                     14                     15
                      A                      A                      A
 Frequencies --    711.0259               743.4579               841.9609
 Red. masses --      8.0819                 4.3014                 1.2455
 Frc consts  --      2.4073                 1.4008                 0.5202
 IR Inten    --      2.1488                30.8873                 0.0001

                     16                     17                     18
                      A                      A                      A
 Frequencies --    857.3096               857.5643               987.8365
 Red. masses --     10.6585                 1.6507                 1.3095
 Frc consts  --      4.6155                 0.7152                 0.7529
 IR Inten    --     82.6460                34.8504                 0.8139

                     19                     20                     21
                      A                      A                      A
 Frequencies --    994.9803              1020.2477              1074.7999
 Red. masses --      1.3610                 5.9129                 2.7947
 Frc consts  --      0.7939                 3.6263                 1.9022
 IR Inten    --      0.0000                53.6205                22.1932

                     22                     23                     24
                      A                      A                      A
 Frequencies --   1129.4107              1148.7543              1225.6417
 Red. masses --      3.2301                 1.3549                 1.2099
 Frc consts  --      2.4276                 1.0534                 1.0708
 IR Inten    --     29.0227                 5.4296                13.4260

                     25                     26                     27
                      A                      A                      A
 Frequencies --   1332.1263              1355.2306              1383.0317
 Red. masses --      1.6735                 3.4727                13.6330
 Frc consts  --      1.7497                 3.7578                15.3641
 IR Inten    --      2.9295                13.1563               424.9045

                     28                     29                     30
                      A                      A                      A
 Frequencies --   1434.3035              1516.6922              1592.5194
 Red. masses --      2.7634                 2.0456                11.1163
 Frc consts  --      3.3494                 2.7725                16.6103
 IR Inten    --      4.3651                32.1762               182.6695

                     31                     32                     33
                      A                      A                      A
 Frequencies --   1622.1168              1651.0907              3224.2731
 Red. masses --      5.4522                 8.7920                 1.0908
 Frc consts  --      8.4525                14.1215                 6.6815
 IR Inten    --     84.3606                88.6818                 0.4146

                     34                     35                     36
                      A                      A                      A
 Frequencies --   3224.6556              3246.7601              3247.1751
 Red. masses --      1.0906                 1.0931                 1.0942
 Frc consts  --      6.6814                 6.7890                 6.7975
 IR Inten    --      1.5994                 1.1259                 2.8217

 - Thermochemistry -
 -------------------
 Temperature   298.150 Kelvin.  Pressure   1.00000 Atm.
 Atom     1 has atomic number  6 and mass  12.00000

 Molecular mass:   248.92460 amu.
 Principal axes and moments of inertia in atomic units:
                           1         2         3
     Eigenvalues --   457.446656365.851466823.29804
           X           -0.50079   0.85671  -0.12357
           Y            0.86555   0.49660  -0.06485
           Z           -0.00581   0.13944   0.99021
 This molecule is an asymmetric top.
 Rotational symmetry number  1.
 Warning -- assumption of classical behavior for rotation
           may cause significant error
 Rotational temperatures (Kelvin)      0.18934     0.01361     0.01269
 Rotational constants (GHZ):           3.94525     0.28350     0.26450
 Zero-point vibrational energy     243197.7 (Joules/Mol)
                                   58.12564 (Kcal/Mol)
 Warning -- explicit consideration of  10 degrees of freedom as
           vibrations may cause significant error
 Vibrational temperatures:     82.28   105.78   225.56   298.15   360.91
          (Kelvin)            438.88   600.55   659.34   672.67   763.36
                              911.16   976.75  1023.01  1069.67  1211.39
                             1233.48  1233.84  1421.28  1431.55  1467.91
                             1546.40  1624.97  1652.80  1763.43  1916.63
                             1949.87  1989.87  2063.64  2182.18  2291.28
                             2333.86  2375.55  4639.01  4639.56  4671.36
                             4671.96

 Zero-point correction=                           0.092629 (Hartree/Particle)
 Thermal correction to Energy=                    0.101055
 Thermal correction to Enthalpy=                  0.101999
 Thermal correction to Gibbs Free Energy=         0.056589
 Sum of electronic and zero-point Energies=           -447.488109
 Sum of electronic and thermal Energies=              -447.479684
 Sum of electronic and thermal Enthalpies=            -447.478740
 Sum of electronic and thermal Free Energies=         -447.524149

                     E (Thermal)             CV                S
                      KCal/Mol        Cal/Mol-Kelvin    Cal/Mol-Kelvin
 Total                   63.413             30.223             95.573
 Electronic               0.000              0.000              0.000
 Translational            0.889              2.981             42.436
 Rotational               0.889              2.981             31.364
 Vibrational             61.635             24.261             21.773
 Vibration     1          0.596              1.975              4.552
 Vibration     2          0.599              1.966              4.057
 Vibration     3          0.620              1.895              2.588
 Vibration     4          0.641              1.830              2.068
 Vibration     5          0.663              1.761              1.725
 Vibration     6          0.696              1.664              1.389
 Vibration     7          0.780              1.432              0.901
 Vibration     8          0.816              1.343              0.771
 Vibration     9          0.825              1.322              0.745
 Vibration    10          0.886              1.182              0.586

 Optimization completed.
    -- Stationary point found.
 Normal termination of Gaussian 16 at Wed Sep 20 06:35:33 2023.
