 Gaussian 16, Revision B.01,
 Gaussian 16:  EM64L-G16RevB.01 20-Dec-2017

 ----------------------------------------------------------------------
 # opt freq rb3lyp/gen nosymm empiricaldispersion=gd3 pseudo=read scf=m
 axcycle=1000 volume
 ----------------------------------------------------------------------

 -----
 reac1
 -----
 Symbolic Z-matrix:
 Charge =  0 Multiplicity = 1

 SCF Done:  E(RB3LYP) =  -243.071199052     A.U. after   14 cycles
 Optimization completed.
    -- Stationary point found.

 1\1\GINC-IP-172-31-38-84\FOpt\RB3LYP\Gen\C6H5I1\UBUNTU\13-Sep-2023\0\\
 # opt freq rb3lyp/gen nosymm empiricaldispersion=gd3 pseudo=read scf=m
 axcycle=1000 volume\\reac1\\0,1\C,-0.455257,0.018145,-0.000121\C,0.206
 03,1.248014,0.000047\C,0.252595,-1.185424,-0.000175\C,1.605246,1.26661
 4,0.000163\H,-0.353144,2.177923,0.000088\C,1.651589,-1.150436,-0.00005
 8\H,-0.270467,-2.136115,-0.000305\C,2.329886,0.071487,0.000111\H,2.124
 324,2.221696,0.000293\H,2.206722,-2.085021,-0.000099\I,-2.606387,-0.02
 29,-0.000299\H,3.416279,0.092366,0.000201\\Version=EM64L-G16RevB.01\HF

 Normal termination of Gaussian 16 at Wed Sep 13 08:20:41 2023.

 ------------------------------------------------------------------
 #N Geom=AllCheck Guess=TCheck SCRF=Check GenChk RB3LYP/ChkBas Freq
 ------------------------------------------------------------------

 Structure from the checkpoint file:  "h-gen-volume.chk"
 -----
 reac1
 -----
 Charge =  0 Multiplicity = 1

                          Input orientation:
 ---------------------------------------------------------------------
 Center     Atomic      Atomic             Coordinates (Angstroms)
 Number     Number       Type             X           Y           Z
 ---------------------------------------------------------------------
      1          6           0       -0.455257    0.018145   -0.000121
      2          6           0        0.206030    1.248014    0.000047
      3          6           0        0.252595   -1.185424   -0.000175
      4          6           0        1.605246    1.266614    0.000163
      5          1           0       -0.353144    2.177923    0.000088
      6          6           0        1.651589   -1.150436   -0.000058
      7          1           0       -0.270467   -2.136115   -0.000305
      8          6           0        2.329886    0.071487    0.000111
      9          1           0        2.124324    2.221696    0.000293
     10          1           0        2.206722   -2.085021   -0.000099
     11         53           0       -2.606387   -0.022900   -0.000299
     12          1           0        3.416279    0.092366    0.000201
 ---------------------------------------------------------------------

 SCF Done:  E(RB3LYP) =  -243.071199052     A.U. after    1 cycles

 Alpha  occ. eigenvalues --  -10.24917 -10.21055 -10.21054 -10.20793 -10.20788
 Alpha  occ. eigenvalues --  -10.20511  -0.87645  -0.77636  -0.76705  -0.69273
 Alpha  occ. eigenvalues --   -0.62603  -0.60523  -0.53057  -0.47089  -0.47048
 Alpha  occ. eigenvalues --   -0.44290  -0.41722  -0.39058  -0.36874  -0.34524
 Alpha  occ. eigenvalues --   -0.30089  -0.27214  -0.27138  -0.24649
 Alpha virt. eigenvalues --   -0.04577  -0.02914  -0.02899   0.00624   0.01992
 Alpha virt. eigenvalues --    0.02115   0.04236   0.04530   0.04585   0.06023
 Alpha virt. eigenvalues --    0.06790   0.07370   0.07640   0.08614   0.11134

 Mulliken charges:
               1
     1  C    0.620000
     2  C   -0.470051
     3  C   -0.469797
     4  C   -0.231637
     5  H    0.196604
     6  C   -0.231573
     7  H    0.196601
     8  C   -0.232343
     9  H    0.185272
    10  H    0.185272
    11  I    0.067822
    12  H    0.183830
 Sum of Mulliken charges =   0.00000

 Dipole moment (field-independent basis, Debye):
    X=              1.8311    Y=              0.0350    Z=              0.0002  Tot=              1.8314
 Quadrupole moment (field-independent basis, Debye-Ang):
   XX=            -52.8063   YY=            -50.8582   ZZ=            -60.2781
   XY=              0.0119   XZ=              0.0005   YZ=              0.0009

  Exact polarizability: 138.629   0.910  91.002   0.007   0.003  55.445
 Approx polarizability: 200.102   1.044 145.338   0.010   0.007  74.810

                      1                      2                      3
                      A                      A                      A
 Frequencies --    151.8780               227.0196               256.5584
 Red. masses --      4.7541                 4.8883                10.1585
 Frc consts  --      0.0646                 0.1484                 0.3940
 IR Inten    --      0.8692                 0.1321                 1.1955

                      4                      5                      6
                      A                      A                      A
 Frequencies --    411.9873               458.7914               622.9024
 Red. masses --      2.8893                 3.4986                 6.4745
 Frc consts  --      0.2889                 0.4339                 1.4801
 IR Inten    --      0.0000                 8.6392                 0.2445

                      7                      8                      9
                      A                      A                      A
 Frequencies --    658.1546               693.6287               744.6121
 Red. masses --      6.9706                 2.7454                 1.3328
 Frc consts  --      1.7790                 0.7782                 0.4354
 IR Inten    --     25.5003                14.9517                69.9258

                     10                     11                     12
                      A                      A                      A
 Frequencies --    845.6885               920.1426               980.3092
 Red. masses --      1.2480                 1.3297                 1.3702
 Frc consts  --      0.5259                 0.6633                 0.7758
 IR Inten    --      0.0000                 1.0252                 0.0000

                     13                     14                     15
                      A                      A                      A
 Frequencies --   1003.6499              1003.8667              1031.3849
 Red. masses --      1.2888                 6.8999                 5.6912
 Frc consts  --      0.7649                 4.0968                 3.5670
 IR Inten    --      0.0719                41.4631                21.1846

                     16                     17                     18
                      A                      A                      A
 Frequencies --   1081.7627              1106.0832              1200.3822
 Red. masses --      1.8882                 1.6636                 1.1087
 Frc consts  --      1.3019                 1.1991                 0.9412
 IR Inten    --      7.3456                 3.5999                 0.0046

                     19                     20                     21
                      A                      A                      A
 Frequencies --   1221.8275              1330.3944              1355.8569
 Red. masses --      1.1481                 3.9081                 1.5128
 Frc consts  --      1.0099                 4.0754                 1.6385
 IR Inten    --      0.0764                 0.1034                 1.5773

                     22                     23                     24
                      A                      A                      A
 Frequencies --   1479.0796              1514.9173              1623.0974
 Red. masses --      2.0740                 1.9810                 5.1399
 Frc consts  --      2.6732                 2.6786                 7.9781
 IR Inten    --      7.6157                32.7282                37.5012

                     25                     26                     27
                      A                      A                      A
 Frequencies --   1629.4799              3184.4674              3193.6512
 Red. masses --      5.5948                 1.0858                 1.0895
 Frc consts  --      8.7525                 6.4872                 6.5469
 IR Inten    --      1.3248                 0.0629                11.7873

                     28                     29                     30
                      A                      A                      A
 Frequencies --   3207.8848              3219.2701              3221.2462
 Red. masses --      1.0939                 1.0935                 1.0957
 Frc consts  --      6.6326                 6.6773                 6.6989
 IR Inten    --     17.0693                10.0761                 4.4172

 - Thermochemistry -
 -------------------
 Temperature   298.150 Kelvin.  Pressure   1.00000 Atm.
 Atom     1 has atomic number  6 and mass  12.00000

 Molecular mass:   203.93953 amu.
 Principal axes and moments of inertia in atomic units:
                           1         2         3
     Eigenvalues --   319.039012477.169082796.20809
           X            0.99982  -0.01911  -0.00008
           Y            0.01911   0.99982  -0.00009
           Z            0.00008   0.00009   1.00000
 This molecule is an asymmetric top.
 Rotational symmetry number  1.
 Rotational temperatures (Kelvin)      0.27148     0.03496     0.03098
 Rotational constants (GHZ):           5.65680     0.72855     0.64542
 Zero-point vibrational energy     236740.8 (Joules/Mol)
                                   56.58241 (Kcal/Mol)
 Warning -- explicit consideration of   5 degrees of freedom as
           vibrations may cause significant error
 Vibrational temperatures:    218.52   326.63   369.13   592.76   660.10
          (Kelvin)            896.22   946.94   997.98  1071.33  1216.76
                             1323.88  1410.45  1444.03  1444.34  1483.93
                             1556.42  1591.41  1727.08  1757.94  1914.14
                             1950.78  2128.07  2179.63  2335.28  2344.46
                             4581.74  4594.95  4615.43  4631.81  4634.65

 Zero-point correction=                           0.090170 (Hartree/Particle)
 Thermal correction to Energy=                    0.096062
 Thermal correction to Enthalpy=                  0.097007
 Thermal correction to Gibbs Free Energy=         0.058401
 Sum of electronic and zero-point Energies=           -242.981029
 Sum of electronic and thermal Energies=              -242.975137
 Sum of electronic and thermal Enthalpies=            -242.974193
 Sum of electronic and thermal Free Energies=         -243.012798

                     E (Thermal)             CV                S
                      KCal/Mol        Cal/Mol-Kelvin    Cal/Mol-Kelvin
 Total                   60.280             21.694             81.252
 Electronic               0.000              0.000              0.000
 Translational            0.889              2.981             41.842
 Rotational               0.889              2.981             29.181
 Vibrational             58.503             15.733             10.228
 Vibration     1          0.619              1.901              2.649
 Vibration     2          0.651              1.800              1.902
 Vibration     3          0.666              1.752              1.685
 Vibration     4          0.776              1.444              0.920
 Vibration     5          0.817              1.341              0.770

 Optimization completed.
    -- Stationary point found.

 1\1\GINC-IP-172-31-38-84\Freq\RB3LYP\Gen\C6H5I1\UBUNTU\13-Sep-2023\0\\
 #N Geom=AllCheck Guess=TCheck SCRF=Check GenChk RB3LYP/ChkBas Freq\\re
 ac1\\0,1\C,-0.455257,0.018145,-0.000121\C,0.20603,1.248014,0.000047\C,
 0.252595,-1.185424,-0.000175\C,1.605246,1.266614,0.000163\H,-0.353144,
 2.177923,0.000088\C,1.651589,-1.150436,-0.000058\H,-0.270467,-2.136115
 ,-0.000305\C,2.329886,0.071487,0.000111\H,2.124324,2.221696,0.000293\H
 ,2.206722,-2.085021,-0.000099\I,-2.606387,-0.0229,-0.000299\H,3.416279
 ,0.092366,0.000201\\Version=EM64L-G16RevB.01\HF=-243.0711991\RMSD=4.06

 Normal termination of Gaussian 16 at Wed Sep 13 08:21:09 2023.
