 Gaussian 16, Revision B.01,
 Gaussian 16:  EM64L-G16RevB.01 20-Dec-2017

 ----------------------------------------------------------------------
 # opt freq b3lyp/gen empiricaldispersion=gd3 pseudo=read scf=maxcycle=
 1000 volume
 ----------------------------------------------------------------------

 -------------------
 Title Card Required
 -------------------
 Symbolic Z-matrix:
 Charge =  0 Multiplicity = 1

 SCF Done:  E(RB3LYP) =  -318.290663398     A.U. after   14 cycles
 Optimization completed.
    -- Stationary point found.
 Normal termination of Gaussian 16 at Mon Sep 18 06:36:13 2023.

 ------------------------------------------------------------------
 #N Geom=AllCheck Guess=TCheck SCRF=Check GenChk RB3LYP/ChkBas Freq
 ------------------------------------------------------------------

 Structure from the checkpoint file:  "ARyLHALIDE-oh-SOL-disp-g16-gas-gen-volume.chk"
 -------------------
 Title Card Required
 -------------------
 Charge =  0 Multiplicity = 1

                         Standard orientation:
 ---------------------------------------------------------------------
 Center     Atomic      Atomic             Coordinates (Angstroms)
 Number     Number       Type             X           Y           Z
 ---------------------------------------------------------------------
      1          6           0        1.841542    2.122722    0.000000
      2          6           0        0.940134    3.187398    0.000000
      3          6           0       -0.434864    2.941433    0.000000
      4          6           0       -0.900685    1.623282    0.000000
      5          6           0        0.000000    0.556554    0.000000
      6          6           0        1.381499    0.797772    0.000000
      7          1           0        2.913898    2.312336    0.000000
      8          1           0       -1.144370    3.764012    0.000000
      9          1           0       -1.967613    1.423297    0.000000
     10         53           0       -0.737842   -1.452380    0.000000
     11          1           0        1.316266    4.206979    0.000000
     12          8           0        2.233587   -0.268336    0.000000
     13          1           0        3.152982    0.041237    0.000000
 ---------------------------------------------------------------------

 SCF Done:  E(RB3LYP) =  -318.290663398     A.U. after    1 cycles

 The electronic state is 1-A'.
 Alpha  occ. eigenvalues --  -19.19917 -10.27453 -10.24244 -10.20975 -10.20819
 Alpha  occ. eigenvalues --  -10.20738 -10.19999  -1.08490  -0.87267  -0.77876
 Alpha  occ. eigenvalues --   -0.76003  -0.69029  -0.64706  -0.60669  -0.56496
 Alpha  occ. eigenvalues --   -0.50415  -0.48753  -0.45682  -0.43158  -0.42580
 Alpha  occ. eigenvalues --   -0.39777  -0.38298  -0.35713  -0.34660  -0.29866
 Alpha  occ. eigenvalues --   -0.26345  -0.25495  -0.23561
 Alpha virt. eigenvalues --   -0.04120  -0.03030  -0.01345  -0.01037   0.01178
 Alpha virt. eigenvalues --    0.02037   0.03712   0.04614   0.04866   0.05747
 Alpha virt. eigenvalues --    0.06213   0.07165   0.07599   0.08543   0.10980

 Mulliken charges:
               1
     1  C   -0.093141
     2  C   -0.430513
     3  C   -0.133904
     4  C   -0.531230
     5  C    1.187207
     6  C   -0.655028
     7  H    0.168384
     8  H    0.182491
     9  H    0.196464
    10  I    0.088958
    11  H    0.184319
    12  O   -0.646204
    13  H    0.482198
 Sum of Mulliken charges =   0.00000

 Dipole moment (field-independent basis, Debye):
    X=              1.7219    Y=              2.3764    Z=              0.0000  Tot=              2.9347
 Quadrupole moment (field-independent basis, Debye-Ang):
   XX=            -49.4560   YY=            -55.7196   ZZ=            -65.5972
   XY=              2.9310   XZ=              0.0000   YZ=              0.0000

  Exact polarizability: 105.213  12.241 138.062   0.000   0.000  58.260
 Approx polarizability: 163.639  12.382 205.223   0.000   0.000  79.477

                      1                      2                      3
                     A"                     A'                     A"
 Frequencies --    127.6833               176.1379               248.1874
 Red. masses --      5.0350                 8.0366                 4.2975
 Frc consts  --      0.0484                 0.1469                 0.1560
 IR Inten    --      2.1676                 1.8890                 7.3561

                      4                      5                      6
                     A'                     A"                     A"
 Frequencies --    248.8431               342.8641               443.1744
 Red. masses --      9.4389                 1.1380                 3.2915
 Frc consts  --      0.3444                 0.0788                 0.3809
 IR Inten    --      0.2437               107.2214                 5.7229

                      7                      8                      9
                     A'                     A"                     A'
 Frequencies --    460.6952               548.1342               550.5993
 Red. masses --      4.2610                 3.6080                 8.0358
 Frc consts  --      0.5328                 0.6387                 1.4353
 IR Inten    --      8.4215                 2.0344                 5.3176

                     10                     11                     12
                     A'                     A"                     A"
 Frequencies --    653.5234               711.2304               759.8618
 Red. masses --      6.8349                 3.2272                 1.3409
 Frc consts  --      1.7199                 0.9618                 0.4562
 IR Inten    --     16.1732                 4.9162                74.6789

                     13                     14                     15
                     A'                     A"                     A"
 Frequencies --    837.9243               849.1934               943.6502
 Red. masses --      6.3071                 1.4359                 1.3519
 Frc consts  --      2.6091                 0.6101                 0.7093
 IR Inten    --     17.4190                 2.3014                 1.3216

                     16                     17                     18
                     A"                     A'                     A'
 Frequencies --    981.9632              1022.6429              1073.1921
 Red. masses --      1.2867                 7.8124                 2.1330
 Frc consts  --      0.7310                 4.8137                 1.4474
 IR Inten    --      0.0273                51.0548                 3.5008

                     19                     20                     21
                     A'                     A'                     A'
 Frequencies --   1134.1135              1196.7951              1202.4709
 Red. masses --      1.7473                 1.2275                 1.0991
 Frc consts  --      1.3241                 1.0359                 0.9363
 IR Inten    --     68.7103                47.6690                16.5868

                     22                     23                     24
                     A'                     A'                     A'
 Frequencies --   1294.2090              1329.3917              1363.3098
 Red. masses --      2.8724                 2.0083                 2.6703
 Frc consts  --      2.8346                 2.0911                 2.9241
 IR Inten    --     27.2005                71.6942                42.4585

                     25                     26                     27
                     A'                     A'                     A'
 Frequencies --   1480.9155              1530.3654              1624.8439
 Red. masses --      2.3037                 2.3654                 5.5778
 Frc consts  --      2.9767                 3.2640                 8.6764
 IR Inten    --     54.6289                36.4202                13.5971

                     28                     29                     30
                     A'                     A'                     A'
 Frequencies --   1640.9113              3164.7645              3192.5231
 Red. masses --      6.0543                 1.0888                 1.0880
 Frc consts  --      9.6047                 6.4250                 6.5333
 IR Inten    --     27.9604                13.8081                 6.0882

                     31                     32                     33
                     A'                     A'                     A'
 Frequencies --   3206.3454              3218.1682              3746.2023
 Red. masses --      1.0929                 1.0961                 1.0663
 Frc consts  --      6.6201                 6.6880                 8.8167
 IR Inten    --     11.5923                10.1095                56.3000

 - Thermochemistry -
 -------------------
 Temperature   298.150 Kelvin.  Pressure   1.00000 Atm.
 Atom     1 has atomic number  6 and mass  12.00000

 Molecular mass:   219.93444 amu.
 Principal axes and moments of inertia in atomic units:
                           1         2         3
     Eigenvalues --   631.924182517.828543149.75272
           X            0.39385   0.91917   0.00000
           Y            0.91917  -0.39385   0.00000
           Z            0.00000   0.00000   1.00000
 This molecule is an asymmetric top.
 Rotational symmetry number  1.
 Warning -- assumption of classical behavior for rotation
           may cause significant error
 Rotational temperatures (Kelvin)      0.13706     0.03440     0.02750
 Rotational constants (GHZ):           2.85595     0.71678     0.57298
 Zero-point vibrational energy     247057.7 (Joules/Mol)
                                   59.04822 (Kcal/Mol)
 Warning -- explicit consideration of   9 degrees of freedom as
           vibrations may cause significant error
 Vibrational temperatures:    183.71   253.42   357.09   358.03   493.31
          (Kelvin)            637.63   662.84   788.64   792.19   940.27
                             1023.30  1093.27  1205.59  1221.80  1357.70
                             1412.83  1471.36  1544.08  1631.74  1721.92
                             1730.09  1862.08  1912.70  1961.50  2130.71
                             2201.85  2337.79  2360.91  4553.39  4593.33
                             4613.22  4630.23  5389.95

 Zero-point correction=                           0.094099 (Hartree/Particle)
 Thermal correction to Energy=                    0.101178
 Thermal correction to Enthalpy=                  0.102122
 Thermal correction to Gibbs Free Energy=         0.060959
 Sum of electronic and zero-point Energies=           -318.196564
 Sum of electronic and thermal Energies=              -318.189486
 Sum of electronic and thermal Enthalpies=            -318.188542
 Sum of electronic and thermal Free Energies=         -318.229705

                     E (Thermal)             CV                S
                      KCal/Mol        Cal/Mol-Kelvin    Cal/Mol-Kelvin
 Total                   63.490             26.291             86.635
 Electronic               0.000              0.000              0.000
 Translational            0.889              2.981             42.067
 Rotational               0.889              2.981             29.995
 Vibrational             61.713             20.330             14.573
 Vibration     1          0.611              1.926              2.981
 Vibration     2          0.628              1.872              2.369
 Vibration     3          0.662              1.766              1.743
 Vibration     4          0.662              1.765              1.739
 Vibration     5          0.722              1.590              1.199
 Vibration     6          0.803              1.376              0.817
 Vibration     7          0.819              1.337              0.764
 Vibration     8          0.903              1.144              0.548
 Vibration     9          0.906              1.138              0.543

 Optimization completed.
    -- Stationary point found.
 Normal termination of Gaussian 16 at Mon Sep 18 06:36:39 2023.
