 Gaussian 16, Revision B.01,
 Gaussian 16:  EM64L-G16RevB.01 20-Dec-2017

 ----------------------------------------------------------------------
 # opt freq rb3lyp/gen nosymm empiricaldispersion=gd3 pseudo=read scf=m
 axcycle=1000 volume
 ----------------------------------------------------------------------

 -----
 reac1
 -----
 Symbolic Z-matrix:
 Charge =  0 Multiplicity = 1

 SCF Done:  E(RB3LYP) =  -395.727311204     A.U. after   15 cycles
 SCF Done:  E(RB3LYP) =  -395.727310945     A.U. after   10 cycles
 SCF Done:  E(RB3LYP) =  -395.727311303     A.U. after   10 cycles
 Optimization completed.
    -- Stationary point found.
 Normal termination of Gaussian 16 at Wed Sep 13 08:15:57 2023.

 ------------------------------------------------------------------
 #N Geom=AllCheck Guess=TCheck SCRF=Check GenChk RB3LYP/ChkBas Freq
 ------------------------------------------------------------------

 Structure from the checkpoint file:  "ARYLHALIDE-coch3-gen-volume.chk"
 -----
 reac1
 -----
 Charge =  0 Multiplicity = 1

                          Input orientation:
 ---------------------------------------------------------------------
 Center     Atomic      Atomic             Coordinates (Angstroms)
 Number     Number       Type             X           Y           Z
 ---------------------------------------------------------------------
      1          6           0       -0.462245    0.019122   -0.000076
      2          6           0        0.204081    1.249091    0.000045
      3          6           0        0.245944   -1.184099   -0.000175
      4          6           0        1.597243    1.265909    0.000064
      5          1           0       -0.352496    2.180439    0.000123
      6          6           0        1.642539   -1.151139   -0.000152
      7          1           0       -0.275740   -2.135331   -0.000268
      8          6           0        2.334328    0.070061   -0.000038
      9          1           0        2.135612    2.208674    0.000154
     10          1           0        2.182040   -2.093141   -0.000230
     11          6           0        3.833041    0.150484   -0.000024
     12          8           0        4.397904    1.236333    0.000345
     13          6           0        4.637411   -1.137984    0.000181
     14          1           0        4.405968   -1.744561    0.884581
     15          1           0        4.406408   -1.744543   -0.884346
     16          1           0        5.700453   -0.889500    0.000447
     17         53           0       -2.606370   -0.019638   -0.000105
 ---------------------------------------------------------------------

 SCF Done:  E(RB3LYP) =  -395.727311303     A.U. after    1 cycles

 Alpha  occ. eigenvalues --  -19.15250 -10.29140 -10.26289 -10.22327 -10.22183
 Alpha  occ. eigenvalues --  -10.21986 -10.21926 -10.21563 -10.19585  -1.05349
 Alpha  occ. eigenvalues --   -0.89037  -0.80227  -0.77973  -0.75314  -0.70610
 Alpha  occ. eigenvalues --   -0.63867  -0.63134  -0.57557  -0.51362  -0.49087
 Alpha  occ. eigenvalues --   -0.47712  -0.45853  -0.45672  -0.45360  -0.43333
 Alpha  occ. eigenvalues --   -0.40419  -0.40217  -0.37513  -0.37363  -0.36092
 Alpha  occ. eigenvalues --   -0.30919  -0.28374  -0.28055  -0.26763  -0.25710
 Alpha virt. eigenvalues --   -0.07911  -0.05431  -0.03856  -0.00354   0.00974
 Alpha virt. eigenvalues --    0.01102   0.02094   0.03440   0.03866   0.03971
 Alpha virt. eigenvalues --    0.04850   0.05318   0.05937   0.06339   0.07487

 Mulliken charges:
               1
     1  C    0.706711
     2  C   -0.480459
     3  C   -0.631245
     4  C   -0.051252
     5  H    0.203160
     6  C   -0.907485
     7  H    0.200529
     8  C    0.619409
     9  H    0.226273
    10  H    0.188636
    11  C    0.486710
    12  O   -0.422366
    13  C   -0.923729
    14  H    0.227046
    15  H    0.227038
    16  H    0.243873
    17  I    0.087150
 Sum of Mulliken charges =   0.00000

 Dipole moment (field-independent basis, Debye):
    X=             -0.5184    Y=             -2.4682    Z=             -0.0004  Tot=              2.5221
 Quadrupole moment (field-independent basis, Debye-Ang):
   XX=            -81.1011   YY=            -69.7444   ZZ=            -75.8685
   XY=            -12.3263   XZ=             -0.0023   YZ=             -0.0003

  Exact polarizability: 197.840   2.174 114.780   0.005   0.005  70.316
 Approx polarizability: 269.507  13.506 190.870   0.007   0.012  99.781

                      1                      2                      3
                      A                      A                      A
 Frequencies --     59.3750                69.8857               144.8199
 Red. masses --      3.6614                 8.5798                 6.2643
 Frc consts  --      0.0076                 0.0247                 0.0774
 IR Inten    --      2.7996                 1.5016                 2.5725

                      4                      5                      6
                      A                      A                      A
 Frequencies --    185.0522               206.1565               231.9591
 Red. masses --      1.0332                11.6383                 6.0174
 Frc consts  --      0.0208                 0.2914                 0.1908
 IR Inten    --      0.1508                 0.9331                 0.8736

                      7                      8                      9
                      A                      A                      A
 Frequencies --    279.6430               413.4652               414.6447
 Red. masses --      4.4283                 4.0304                 2.8888
 Frc consts  --      0.2040                 0.4060                 0.2926
 IR Inten    --      4.1345                 4.6041                 0.0399

                     10                     11                     12
                      A                      A                      A
 Frequencies --    460.7109               487.4230               598.1720
 Red. masses --      3.4860                 5.7140                 2.4922
 Frc consts  --      0.4359                 0.7998                 0.5254
 IR Inten    --      6.4948                 7.8421                12.4750

                     13                     14                     15
                      A                      A                      A
 Frequencies --    610.2946               637.5236               724.0454
 Red. masses --      4.4202                 7.0882                 3.5185
 Frc consts  --      0.9700                 1.6974                 1.0868
 IR Inten    --     10.4967                 1.2608                 2.8996

                     16                     17                     18
                      A                      A                      A
 Frequencies --    751.5174               833.2978               852.8121
 Red. masses --      5.7677                 1.3649                 1.2929
 Frc consts  --      1.9192                 0.5584                 0.5540
 IR Inten    --     35.8899                33.1399                13.0895

                     19                     20                     21
                      A                      A                      A
 Frequencies --    968.9581               974.6720              1001.6168
 Red. masses --      2.2927                 1.3303                 1.3482
 Frc consts  --      1.2683                 0.7446                 0.7969
 IR Inten    --     68.2661                 0.0880                 0.4709

                     22                     23                     24
                      A                      A                      A
 Frequencies --   1016.4070              1055.9970              1074.2380
 Red. masses --      5.5007                 1.8620                 3.4375
 Frc consts  --      3.3481                 1.2234                 2.3372
 IR Inten    --     61.1906                 0.7326                10.7552

                     25                     26                     27
                      A                      A                      A
 Frequencies --   1103.3251              1155.4417              1230.8958
 Red. masses --      1.9649                 1.4200                 1.1641
 Frc consts  --      1.4093                 1.1169                 1.0392
 IR Inten    --     12.8052                 4.2860                28.8466

                     28                     29                     30
                      A                      A                      A
 Frequencies --   1286.3244              1336.5105              1345.9992
 Red. masses --      3.5656                 4.7034                 1.5041
 Frc consts  --      3.4760                 4.9500                 1.6055
 IR Inten    --    192.9825                 5.0063                 5.5937

                     31                     32                     33
                      A                      A                      A
 Frequencies --   1408.3220              1435.7302              1495.5251
 Red. masses --      1.3331                 2.4239                 1.0676
 Frc consts  --      1.5578                 2.9438                 1.4069
 IR Inten    --     28.3287                42.8836                16.3913

                     34                     35                     36
                      A                      A                      A
 Frequencies --   1503.6509              1527.2945              1607.6876
 Red. masses --      1.0470                 2.1041                 6.5739
 Frc consts  --      1.3947                 2.8918                10.0111
 IR Inten    --     12.4706                 8.7541                20.4312

                     37                     38                     39
                      A                      A                      A
 Frequencies --   1631.5189              1757.0252              3047.5271
 Red. masses --      5.1414                10.5987                 1.0384
 Frc consts  --      8.0634                19.2778                 5.6820
 IR Inten    --    144.7567               222.1134                 3.3125

                     40                     41                     42
                      A                      A                      A
 Frequencies --   3106.3497              3163.3046              3207.0317
 Red. masses --      1.0999                 1.1011                 1.0879
 Frc consts  --      6.2531                 6.4919                 6.5921
 IR Inten    --      8.1277                12.0030                 3.0421

                     43                     44                     45
                      A                      A                      A
 Frequencies --   3212.4116              3223.7907              3226.2411
 Red. masses --      1.0884                 1.0943                 1.0950
 Frc consts  --      6.6174                 6.7005                 6.7149
 IR Inten    --      0.5910                 6.7110                 0.8993

 - Thermochemistry -
 -------------------
 Temperature   298.150 Kelvin.  Pressure   1.00000 Atm.
 Atom     1 has atomic number  6 and mass  12.00000

 Molecular mass:   245.95009 amu.
 Principal axes and moments of inertia in atomic units:
                           1         2         3
     Eigenvalues --   492.598786425.097136906.43423
           X            0.99992  -0.01248  -0.00004
           Y            0.01248   0.99992  -0.00008
           Z            0.00004   0.00008   1.00000
 This molecule is an asymmetric top.
 Rotational symmetry number  1.
 Warning -- assumption of classical behavior for rotation
           may cause significant error
 Rotational temperatures (Kelvin)      0.17583     0.01348     0.01254
 Rotational constants (GHZ):           3.66371     0.28089     0.26131
 Zero-point vibrational energy     335340.7 (Joules/Mol)
                                   80.14836 (Kcal/Mol)
 Warning -- explicit consideration of  13 degrees of freedom as
           vibrations may cause significant error
 Vibrational temperatures:     85.43   100.55   208.36   266.25   296.61
          (Kelvin)            333.74   402.34   594.88   596.58   662.86
                              701.29   860.64   878.08   917.25  1041.74
                             1081.27  1198.93  1227.01  1394.11  1402.34
                             1441.10  1462.38  1519.34  1545.59  1587.44
                             1662.42  1770.98  1850.73  1922.94  1936.59
                             2026.26  2065.70  2151.73  2163.42  2197.44
                             2313.10  2347.39  2527.97  4384.71  4469.34
                             4551.29  4614.20  4621.94  4638.32  4641.84

 Zero-point correction=                           0.127725 (Hartree/Particle)
 Thermal correction to Energy=                    0.137116
 Thermal correction to Enthalpy=                  0.138060
 Thermal correction to Gibbs Free Energy=         0.090898
 Sum of electronic and zero-point Energies=           -395.599587
 Sum of electronic and thermal Energies=              -395.590195
 Sum of electronic and thermal Enthalpies=            -395.589251
 Sum of electronic and thermal Free Energies=         -395.636413

                     E (Thermal)             CV                S
                      KCal/Mol        Cal/Mol-Kelvin    Cal/Mol-Kelvin
 Total                   86.042             34.014             99.261
 Electronic               0.000              0.000              0.000
 Translational            0.889              2.981             42.401
 Rotational               0.889              2.981             31.458
 Vibrational             84.264             28.052             25.402
 Vibration     1          0.597              1.974              4.478
 Vibration     2          0.598              1.968              4.157
 Vibration     3          0.616              1.908              2.739
 Vibration     4          0.631              1.860              2.277
 Vibration     5          0.641              1.831              2.077
 Vibration     6          0.653              1.792              1.864
 Vibration     7          0.680              1.711              1.536
 Vibration     8          0.777              1.441              0.914
 Vibration     9          0.778              1.438              0.910
 Vibration    10          0.819              1.337              0.764
 Vibration    11          0.843              1.278              0.690
 Vibration    12          0.956              1.036              0.453
 Vibration    13          0.969              1.010              0.432

 Optimization completed.
    -- Stationary point found.
 Normal termination of Gaussian 16 at Wed Sep 13 08:17:08 2023.
