 Gaussian 16, Revision B.01,
 Gaussian 16:  EM64L-G16RevB.01 20-Dec-2017

 ----------------------------------------------------------------------
 # opt freq rb3lyp/gen nosymm empiricaldispersion=gd3 pseudo=read scf=m
 axcycle=1000 volume
 ----------------------------------------------------------------------

 -----
 reac1
 -----
 Symbolic Z-matrix:
 Charge =  0 Multiplicity = 1

 SCF Done:  E(RB3LYP) =  -282.392639157     A.U. after   15 cycles
 Optimization completed.
    -- Stationary point found.
 Normal termination of Gaussian 16 at Sat Sep 16 07:22:20 2023.

 ------------------------------------------------------------------
 #N Geom=AllCheck Guess=TCheck SCRF=Check GenChk RB3LYP/ChkBas Freq
 ------------------------------------------------------------------

 Structure from the checkpoint file:  "ARYLHALIDE-o-ch3-gen-vol.chk"
 -----
 reac1
 -----
 Charge =  0 Multiplicity = 1

                          Input orientation:
 ---------------------------------------------------------------------
 Center     Atomic      Atomic             Coordinates (Angstroms)
 Number     Number       Type             X           Y           Z
 ---------------------------------------------------------------------
      1          6           0       -0.452491    0.020463   -0.000122
      2          6           0        0.211932    1.249223    0.000048
      3          6           0        0.236231   -1.203192   -0.000182
      4          6           0        1.608990    1.277597    0.000166
      5          1           0       -0.351513    2.176565    0.000090
      6          6           0        1.640812   -1.137381   -0.000060
      7          6           0        2.324834    0.078889    0.000111
      8          1           0        2.126470    2.233243    0.000298
      9          1           0        2.202843   -2.068573   -0.000102
     10         53           0       -2.612550    0.064699   -0.000294
     11          1           0        3.411729    0.088669    0.000201
     12          6           0       -0.459864   -2.541913   -0.000365
     13          1           0       -1.103803   -2.655421    0.880356
     14          1           0       -1.103659   -2.655255   -0.881213
     15          1           0        0.267292   -3.360223   -0.000383
 ---------------------------------------------------------------------

 SCF Done:  E(RB3LYP) =  -282.392639157     A.U. after    1 cycles

 Alpha  occ. eigenvalues --  -10.24460 -10.21840 -10.20678 -10.20211 -10.20185
 Alpha  occ. eigenvalues --  -10.20098 -10.18757  -0.87639  -0.78910  -0.77059
 Alpha  occ. eigenvalues --   -0.70513  -0.68524  -0.61577  -0.59173  -0.51528
 Alpha  occ. eigenvalues --   -0.48005  -0.46072  -0.43275  -0.42764  -0.41375
 Alpha  occ. eigenvalues --   -0.39407  -0.37357  -0.36355  -0.33928  -0.29733
 Alpha  occ. eigenvalues --   -0.26858  -0.26154  -0.24393
 Alpha virt. eigenvalues --   -0.04387  -0.02643  -0.02244   0.00495   0.01552
 Alpha virt. eigenvalues --    0.02084   0.03925   0.04436   0.04455   0.05577
 Alpha virt. eigenvalues --    0.06099   0.06443   0.06836   0.07716   0.09842

 Mulliken charges:
               1
     1  C    0.465817
     2  C   -0.002462
     3  C    0.214177
     4  C   -0.277667
     5  H    0.195789
     6  C   -0.890185
     7  C   -0.112716
     8  H    0.183117
     9  H    0.178539
    10  I    0.064188
    11  H    0.182500
    12  C   -0.883489
    13  H    0.238891
    14  H    0.238891
    15  H    0.204610
 Sum of Mulliken charges =   0.00000

 Dipole moment (field-independent basis, Debye):
    X=              1.6007    Y=             -0.4582    Z=              0.0001  Tot=              1.6649
 Quadrupole moment (field-independent basis, Debye-Ang):
   XX=            -60.1880   YY=            -56.8586   ZZ=            -66.5588
   XY=              0.4140   XZ=              0.0004   YZ=              0.0010

  Exact polarizability: 148.974   1.718 109.429   0.007   0.004  64.693
 Approx polarizability: 220.478   0.775 165.917   0.011   0.007  90.663

                      1                      2                      3
                      A                      A                      A
 Frequencies --    127.9785               194.5383               200.0092
 Red. masses --      3.9304                 1.1916                 4.7728
 Frc consts  --      0.0379                 0.0266                 0.1125
 IR Inten    --      0.0133                 1.3970                 0.3016

                      4                      5                      6
                      A                      A                      A
 Frequencies --    235.5974               245.1360               411.4071
 Red. masses --      2.3040                 8.6542                 2.8754
 Frc consts  --      0.0753                 0.3064                 0.2867
 IR Inten    --      3.0945                 1.0887                 0.1759

                      7                      8                      9
                      A                      A                      A
 Frequencies --    440.0362               507.6197               542.6030
 Red. masses --      3.0973                 3.5269                 5.6167
 Frc consts  --      0.3533                 0.5354                 0.9743
 IR Inten    --      4.8360                 0.0544                 4.4950

                     10                     11                     12
                      A                      A                      A
 Frequencies --    654.7331               702.6725               758.7549
 Red. masses --      6.8392                 3.8410                 1.1868
 Frc consts  --      1.7274                 1.1174                 0.4026
 IR Inten    --     18.6422                 0.2269                65.0132

                     13                     14                     15
                      A                      A                      A
 Frequencies --    805.9747               870.0521               953.1024
 Red. masses --      4.7617                 1.2831                 1.3482
 Frc consts  --      1.8224                 0.5723                 0.7216
 IR Inten    --      1.0603                 0.0609                 0.5711

                     16                     17                     18
                      A                      A                      A
 Frequencies --    995.1307              1012.6522              1025.5677
 Red. masses --      1.3004                 7.4202                 1.4622
 Frc consts  --      0.7588                 4.4832                 0.9061
 IR Inten    --      0.0098                65.9410                13.2316

                     19                     20                     21
                      A                      A                      A
 Frequencies --   1073.7495              1075.5899              1157.9475
 Red. masses --      1.4973                 2.3270                 1.5605
 Frc consts  --      1.0171                 1.5862                 1.2328
 IR Inten    --      2.1500                 1.8083                 0.4463

                     22                     23                     24
                      A                      A                      A
 Frequencies --   1204.6978              1237.9209              1315.4238
 Red. masses --      1.1180                 2.5142                 1.4355
 Frc consts  --      0.9560                 2.2700                 1.4635
 IR Inten    --      0.0660                 0.0283                 1.9273

                     25                     26                     27
                      A                      A                      A
 Frequencies --   1329.1986              1444.6461              1467.3039
 Red. masses --      7.0197                 1.2303                 1.8951
 Frc consts  --      7.3072                 1.5128                 2.4039
 IR Inten    --      1.6645                 1.8834                 9.0152

                     28                     29                     30
                      A                      A                      A
 Frequencies --   1507.3103              1510.1357              1523.2935
 Red. masses --      2.0883                 1.0421                 1.1951
 Frc consts  --      2.7954                 1.4001                 1.6338
 IR Inten    --     20.5286                10.6284                23.9331

                     31                     32                     33
                      A                      A                      A
 Frequencies --   1612.8778              1638.3144              3043.6431
 Red. masses --      4.9502                 5.8424                 1.0365
 Frc consts  --      7.5872                 9.2392                 5.6572
 IR Inten    --     15.3976                 7.6200                18.3252

                     34                     35                     36
                      A                      A                      A
 Frequencies --   3098.0647              3122.2324              3177.9752
 Red. masses --      1.1006                 1.1021                 1.0867
 Frc consts  --      6.2241                 6.3298                 6.4665
 IR Inten    --      9.9027                19.9430                 5.3908

                     37                     38                     39
                      A                      A                      A
 Frequencies --   3190.9737              3205.0357              3219.1310
 Red. masses --      1.0893                 1.0945                 1.0951
 Frc consts  --      6.5352                 6.6242                 6.6865
 IR Inten    --     13.7126                19.8098                 8.5406

 - Thermochemistry -
 -------------------
 Temperature   298.150 Kelvin.  Pressure   1.00000 Atm.
 Atom     1 has atomic number  6 and mass  12.00000

 Molecular mass:   217.95518 amu.
 Principal axes and moments of inertia in atomic units:
                           1         2         3
     Eigenvalues --   664.553512521.540323174.92566
           X            0.99843   0.05608  -0.00008
           Y           -0.05608   0.99843  -0.00009
           Z            0.00008   0.00010   1.00000
 This molecule is an asymmetric top.
 Rotational symmetry number  1.
 Warning -- assumption of classical behavior for rotation
           may cause significant error
 Rotational temperatures (Kelvin)      0.13033     0.03435     0.02728
 Rotational constants (GHZ):           2.71572     0.71573     0.56844
 Zero-point vibrational energy     310066.3 (Joules/Mol)
                                   74.10762 (Kcal/Mol)
 Warning -- explicit consideration of   9 degrees of freedom as
           vibrations may cause significant error
 Vibrational temperatures:    184.13   279.90   287.77   338.97   352.70
          (Kelvin)            591.92   633.11   730.35   780.68   942.01
                             1010.99  1091.68  1159.62  1251.81  1371.30
                             1431.77  1456.98  1475.56  1544.89  1547.53
                             1666.03  1733.29  1781.09  1892.60  1912.42
                             2078.52  2111.12  2168.68  2172.75  2191.68
                             2320.57  2357.17  4379.12  4457.42  4492.20
                             4572.40  4591.10  4611.33  4631.61

 Zero-point correction=                           0.118098 (Hartree/Particle)
 Thermal correction to Energy=                    0.125507
 Thermal correction to Enthalpy=                  0.126451
 Thermal correction to Gibbs Free Energy=         0.084650
 Sum of electronic and zero-point Energies=           -282.274541
 Sum of electronic and thermal Energies=              -282.267132
 Sum of electronic and thermal Enthalpies=            -282.266188
 Sum of electronic and thermal Free Energies=         -282.307989

                     E (Thermal)             CV                S
                      KCal/Mol        Cal/Mol-Kelvin    Cal/Mol-Kelvin
 Total                   78.757             27.506             87.978
 Electronic               0.000              0.000              0.000
 Translational            0.889              2.981             42.040
 Rotational               0.889              2.981             30.054
 Vibrational             76.980             21.544             15.883
 Vibration     1          0.611              1.925              2.976
 Vibration     2          0.635              1.847              2.184
 Vibration     3          0.638              1.840              2.133
 Vibration     4          0.655              1.786              1.836
 Vibration     5          0.660              1.771              1.765
 Vibration     6          0.775              1.445              0.922
 Vibration     7          0.800              1.383              0.826
 Vibration     8          0.863              1.233              0.639
 Vibration     9          0.898              1.156              0.560

 Optimization completed.
    -- Stationary point found.
 Normal termination of Gaussian 16 at Sat Sep 16 07:23:05 2023.
