 Gaussian 16, Revision B.01,
 Gaussian 16:  EM64L-G16RevB.01 20-Dec-2017

 ----------------------------------------------------------------------
 # opt freq rb3lyp/gen nosymm empiricaldispersion=gd3 pseudo=read scf=m
 axcycle=1000 volume
 ----------------------------------------------------------------------

 -----
 reac1
 -----
 Symbolic Z-matrix:
 Charge =  0 Multiplicity = 1

 SCF Done:  E(RB3LYP) =  -282.392059235     A.U. after   15 cycles
 Optimization completed.
    -- Stationary point found.

 1\1\GINC-IP-172-31-38-84\FOpt\RB3LYP\Gen\C7H7I1\UBUNTU\13-Sep-2023\0\\
 # opt freq rb3lyp/gen nosymm empiricaldispersion=gd3 pseudo=read scf=m
 axcycle=1000 volume\\reac1\\0,1\C,-0.45111,0.013598,-0.000121\C,0.2152
 48,1.237565,0.000043\C,0.245629,-1.196694,-0.000174\C,1.619849,1.27389
 ,0.000159\H,-0.344968,2.168203,0.000082\C,1.642487,-1.158913,-0.000058
 \C,2.322453,0.062377,0.000106\H,2.200965,-2.09164,-0.000098\I,-2.60425
 7,-0.011158,-0.000296\H,-0.281418,-2.144844,-0.000302\H,3.409787,0.073
 496,0.000195\C,2.337799,2.605233,0.000339\H,2.071058,3.199105,-0.88281

 Normal termination of Gaussian 16 at Wed Sep 13 08:43:58 2023.

 ------------------------------------------------------------------
 #N Geom=AllCheck Guess=TCheck SCRF=Check GenChk RB3LYP/ChkBas Freq
 ------------------------------------------------------------------

 Structure from the checkpoint file:  "ARYLHALIDE-m-ch3-gen-volume.chk"
 -----
 reac1
 -----
 Charge =  0 Multiplicity = 1

                          Input orientation:
 ---------------------------------------------------------------------
 Center     Atomic      Atomic             Coordinates (Angstroms)
 Number     Number       Type             X           Y           Z
 ---------------------------------------------------------------------
      1          6           0       -0.451110    0.013598   -0.000121
      2          6           0        0.215248    1.237565    0.000043
      3          6           0        0.245629   -1.196694   -0.000174
      4          6           0        1.619849    1.273890    0.000159
      5          1           0       -0.344968    2.168203    0.000082
      6          6           0        1.642487   -1.158913   -0.000058
      7          6           0        2.322453    0.062377    0.000106
      8          1           0        2.200965   -2.091640   -0.000098
      9         53           0       -2.604257   -0.011158   -0.000296
     10          1           0       -0.281418   -2.144844   -0.000302
     11          1           0        3.409787    0.073496    0.000195
     12          6           0        2.337799    2.605233    0.000339
     13          1           0        2.071058    3.199105   -0.882813
     14          1           0        2.070946    3.198926    0.883579
     15          1           0        3.424771    2.473633    0.000395
 ---------------------------------------------------------------------

 SCF Done:  E(RB3LYP) =  -282.392059235     A.U. after    1 cycles

 Alpha  occ. eigenvalues --  -10.24617 -10.21402 -10.20531 -10.20430 -10.20417
 Alpha  occ. eigenvalues --  -10.19918 -10.19011  -0.87629  -0.79116  -0.76970
 Alpha  occ. eigenvalues --   -0.70340  -0.68950  -0.61564  -0.58838  -0.52161
 Alpha  occ. eigenvalues --   -0.47998  -0.45773  -0.43364  -0.42777  -0.41245
 Alpha  occ. eigenvalues --   -0.40029  -0.37758  -0.36126  -0.33989  -0.29604
 Alpha  occ. eigenvalues --   -0.26912  -0.26128  -0.24331
 Alpha virt. eigenvalues --   -0.04399  -0.02851  -0.02309   0.00308   0.01600
 Alpha virt. eigenvalues --    0.02085   0.03799   0.03980   0.04363   0.05599
 Alpha virt. eigenvalues --    0.06065   0.06536   0.06729   0.07938   0.08757

 Mulliken charges:
               1
     1  C    0.858818
     2  C   -0.365984
     3  C   -0.425269
     4  C    0.340948
     5  H    0.191786
     6  C   -0.247905
     7  C   -0.663356
     8  H    0.183813
     9  I    0.059205
    10  H    0.195444
    11  H    0.176833
    12  C   -0.962161
    13  H    0.225559
    14  H    0.225560
    15  H    0.206710
 Sum of Mulliken charges =   0.00000

 Dipole moment (field-independent basis, Debye):
    X=              2.0735    Y=              0.4596    Z=              0.0002  Tot=              2.1238
 Quadrupole moment (field-independent basis, Debye-Ang):
   XX=            -59.4615   YY=            -56.8083   ZZ=            -66.5244
   XY=              0.8593   XZ=              0.0005   YZ=              0.0009

  Exact polarizability: 151.737   7.405 110.014   0.008   0.005  64.858
 Approx polarizability: 216.578   3.166 167.147   0.010   0.007  89.919

 ******    1 imaginary frequencies (negative Signs) ******

                      1                      2                      3
                      A                      A                      A
 Frequencies --    -24.3293               143.4359               175.3010
 Red. masses --      1.0347                 4.6001                 4.5916
 Frc consts  --      0.0004                 0.0558                 0.0831
 IR Inten    --      0.2197                 1.4121                 0.2404

                      4                      5                      6
                      A                      A                      A
 Frequencies --    214.2823               251.5692               381.3882
 Red. masses --      2.9727                 9.2393                 2.8401
 Frc consts  --      0.0804                 0.3445                 0.2434
 IR Inten    --      1.1086                 1.2005                 0.1346

                      7                      8                      9
                      A                      A                      A
 Frequencies --    435.3761               515.0677               527.7221
 Red. masses --      2.9526                 3.9397                 5.1369
 Frc consts  --      0.3298                 0.6158                 0.8429
 IR Inten    --      5.4685                 0.0187                 1.5165

                     10                     11                     12
                      A                      A                      A
 Frequencies --    662.6733               691.9472               781.7786
 Red. masses --      7.1857                 2.6611                 1.2974
 Frc consts  --      1.8592                 0.7507                 0.4672
 IR Inten    --     17.1376                12.2865                43.5757

                     13                     14                     15
                      A                      A                      A
 Frequencies --    825.5679               895.2591               912.4064
 Red. masses --      5.4408                 1.3219                 1.3273
 Frc consts  --      2.1848                 0.6242                 0.6510
 IR Inten    --     34.2141                 4.2851                 0.4245

                     16                     17                     18
                      A                      A                      A
 Frequencies --    987.5400              1008.6157              1021.4381
 Red. masses --      1.3191                 5.9967                 1.4467
 Frc consts  --      0.7580                 3.5943                 0.8893
 IR Inten    --      0.1226                14.0637                 3.5570

                     19                     20                     21
                      A                      A                      A
 Frequencies --   1073.9807              1090.3345              1136.4636
 Red. masses --      1.5161                 2.4891                 1.5530
 Frc consts  --      1.0304                 1.7435                 1.1818
 IR Inten    --      3.2500                20.8877                 2.3110

                     22                     23                     24
                      A                      A                      A
 Frequencies --   1214.1592              1234.3728              1326.2459
 Red. masses --      1.2239                 2.1867                 2.9418
 Frc consts  --      1.0630                 1.9631                 3.0486
 IR Inten    --      2.7334                 7.2524                 0.0678

                     25                     26                     27
                      A                      A                      A
 Frequencies --   1351.3227              1439.3470              1452.8925
 Red. masses --      1.6857                 1.2303                 2.4130
 Frc consts  --      1.8137                 1.5018                 3.0011
 IR Inten    --      1.3269                 0.8997                 4.2347

                     28                     29                     30
                      A                      A                      A
 Frequencies --   1509.2133              1513.8257              1521.1180
 Red. masses --      1.0430                 1.7273                 1.3060
 Frc consts  --      1.3998                 2.3322                 1.7804
 IR Inten    --      7.8645                12.2629                33.6403

                     31                     32                     33
                      A                      A                      A
 Frequencies --   1612.8377              1642.9458              3040.8802
 Red. masses --      5.0961                 5.6350                 1.0369
 Frc consts  --      7.8103                 8.9617                 5.6492
 IR Inten    --     43.6372                26.8727                31.1344

                     34                     35                     36
                      A                      A                      A
 Frequencies --   3093.4939              3119.5805              3180.8718
 Red. masses --      1.1010                 1.1014                 1.0871
 Frc consts  --      6.2077                 6.3151                 6.4808
 IR Inten    --     14.6660                18.1231                 7.8903

                     37                     38                     39
                      A                      A                      A
 Frequencies --   3197.6706              3200.3160              3222.3143
 Red. masses --      1.0927                 1.0915                 1.0942
 Frc consts  --      6.5829                 6.5868                 6.6939
 IR Inten    --     20.1954                 3.4556                 5.7090

 - Thermochemistry -
 -------------------
 Temperature   298.150 Kelvin.  Pressure   1.00000 Atm.
 Atom     1 has atomic number  6 and mass  12.00000

 Molecular mass:   217.95518 amu.
 Principal axes and moments of inertia in atomic units:
                           1         2         3
     Eigenvalues --   574.452013202.289543765.51213
           X            0.98164  -0.19076  -0.00008
           Y            0.19076   0.98164  -0.00009
           Z            0.00010   0.00007   1.00000
 This molecule is an asymmetric top.
 Rotational symmetry number  1.
 Warning -- assumption of classical behavior for rotation
           may cause significant error
 Rotational temperatures (Kelvin)      0.15078     0.02705     0.02300
 Rotational constants (GHZ):           3.14167     0.56358     0.47928
    1 imaginary frequencies ignored.
 Zero-point vibrational energy     308669.8 (Joules/Mol)
                                   73.77385 (Kcal/Mol)
 Warning -- explicit consideration of   8 degrees of freedom as
           vibrations may cause significant error
 Vibrational temperatures:    206.37   252.22   308.30   361.95   548.73
          (Kelvin)            626.41   741.07   759.27   953.44   995.56
                             1124.81  1187.81  1288.08  1312.75  1420.85
                             1451.17  1469.62  1545.22  1568.75  1635.12
                             1746.90  1775.99  1908.17  1944.25  2070.90
                             2090.39  2171.42  2178.06  2188.55  2320.51
                             2363.83  4375.15  4450.85  4488.38  4576.56
                             4600.73  4604.54  4636.19

 Zero-point correction=                           0.117566 (Hartree/Particle)
 Thermal correction to Energy=                    0.124470
 Thermal correction to Enthalpy=                  0.125414
 Thermal correction to Gibbs Free Energy=         0.084400
 Sum of electronic and zero-point Energies=           -282.274493
 Sum of electronic and thermal Energies=              -282.267589
 Sum of electronic and thermal Enthalpies=            -282.266645
 Sum of electronic and thermal Free Energies=         -282.307660

                     E (Thermal)             CV                S
                      KCal/Mol        Cal/Mol-Kelvin    Cal/Mol-Kelvin
 Total                   78.106             25.744             86.322
 Electronic               0.000              0.000              0.000
 Translational            0.889              2.981             42.040
 Rotational               0.889              2.981             30.317
 Vibrational             76.329             19.783             13.965
 Vibration     1          0.616              1.910              2.758
 Vibration     2          0.627              1.873              2.378
 Vibration     3          0.644              1.819              2.007
 Vibration     4          0.664              1.760              1.720
 Vibration     5          0.751              1.510              1.034
 Vibration     6          0.796              1.393              0.841
 Vibration     7          0.870              1.217              0.622
 Vibration     8          0.883              1.189              0.592

 Optimization completed.
    -- Stationary point found.

 1\1\GINC-IP-172-31-38-84\Freq\RB3LYP\Gen\C7H7I1\UBUNTU\13-Sep-2023\0\\
 #N Geom=AllCheck Guess=TCheck SCRF=Check GenChk RB3LYP/ChkBas Freq\\re
 ac1\\0,1\C,-0.45111,0.013598,-0.000121\C,0.215248,1.237565,0.000043\C,
 0.245629,-1.196694,-0.000174\C,1.619849,1.27389,0.000159\H,-0.344968,2
 .168203,0.000082\C,1.642487,-1.158913,-0.000058\C,2.322453,0.062377,0.
 000106\H,2.200965,-2.09164,-0.000098\I,-2.604257,-0.011158,-0.000296\H
 ,-0.281418,-2.144844,-0.000302\H,3.409787,0.073496,0.000195\C,2.337799
 ,2.605233,0.000339\H,2.071058,3.199105,-0.882813\H,2.070946,3.198926,0

 Normal termination of Gaussian 16 at Wed Sep 13 08:44:42 2023.
