 Gaussian 16, Revision B.01,
 Gaussian 16:  EM64L-G16RevB.01 20-Dec-2017

 ----------------------------------------------------------------------
 # opt freq b3lyp/gen empiricaldispersion=gd3 pseudo=read scf=maxcycle=
 1000 volume
 ----------------------------------------------------------------------

 -------------------
 Title Card Required
 -------------------
 Symbolic Z-matrix:
 Charge =  0 Multiplicity = 1

 SCF Done:  E(RB3LYP) =  -337.204599763     A.U. after   15 cycles
 SCF Done:  E(RB3LYP) =  -337.204599689     A.U. after   11 cycles
 SCF Done:  E(RB3LYP) =  -337.204599773     A.U. after   10 cycles
 Optimization completed.
    -- Stationary point found.
 Normal termination of Gaussian 16 at Wed Sep 20 06:04:21 2023.

 ------------------------------------------------------------------
 #N Geom=AllCheck Guess=TCheck SCRF=Check GenChk RB3LYP/ChkBas Freq
 ------------------------------------------------------------------

 Structure from the checkpoint file:  "p-py-vol.chk"
 -------------------
 Title Card Required
 -------------------
 Charge =  0 Multiplicity = 1

                         Standard orientation:
 ---------------------------------------------------------------------
 Center     Atomic      Atomic             Coordinates (Angstroms)
 Number     Number       Type             X           Y           Z
 ---------------------------------------------------------------------
      1          6           0        3.496269   -1.143187   -0.000155
      2          6           0        2.102507   -1.203272   -0.000199
      3          6           0        1.373671   -0.000051   -0.000221
      4          6           0        2.102397    1.203237   -0.000199
      5          6           0        3.496165    1.143282   -0.000156
      6          7           0        4.197101    0.000080   -0.000132
      7          1           0        4.080986   -2.061061   -0.000137
      8          1           0        1.588593   -2.159403   -0.000216
      9          1           0        1.588397    2.159320   -0.000216
     10          1           0        4.080798    2.061209   -0.000137
     11          6           0       -0.054172   -0.000121   -0.000286
     12          6           0       -1.266370   -0.000136   -0.000233
     13         35           0       -3.092037    0.000025    0.000295
 ---------------------------------------------------------------------

 SCF Done:  E(RB3LYP) =  -337.204599773     A.U. after    1 cycles

 The electronic state is 1-A.
 Alpha  occ. eigenvalues --  -14.34644 -10.25009 -10.24696 -10.23481 -10.23479
 Alpha  occ. eigenvalues --  -10.21840 -10.21458 -10.21458  -0.95685  -0.88493
 Alpha  occ. eigenvalues --   -0.84440  -0.77845  -0.75878  -0.66117  -0.64849
 Alpha  occ. eigenvalues --   -0.56776  -0.50577  -0.50357  -0.48960  -0.44729
 Alpha  occ. eigenvalues --   -0.44538  -0.41934  -0.38885  -0.38024  -0.37228
 Alpha  occ. eigenvalues --   -0.33374  -0.28258  -0.28013  -0.27288  -0.26205
 Alpha virt. eigenvalues --   -0.06701  -0.04005  -0.03258   0.00052   0.01956
 Alpha virt. eigenvalues --    0.02222   0.02400   0.03547   0.04285   0.04671
 Alpha virt. eigenvalues --    0.04848   0.05349   0.06074   0.06418   0.06677

 Mulliken charges:
               1
     1  C   -0.287861
     2  C    0.272335
     3  C   -0.422983
     4  C    0.272197
     5  C   -0.287832
     6  N   -0.156460
     7  H    0.184536
     8  H    0.198649
     9  H    0.198649
    10  H    0.184536
    11  C    0.263861
    12  C   -0.734562
    13  Br   0.314936
 Sum of Mulliken charges =   0.00000

 Dipole moment (field-independent basis, Debye):
    X=             -1.9820    Y=              0.0001    Z=              0.0003  Tot=              1.9820
 Quadrupole moment (field-independent basis, Debye-Ang):
   XX=            -67.6334   YY=            -54.3087   ZZ=            -63.3779
   XY=             -0.0011   XZ=             -0.0013   YZ=              0.0000

  Exact polarizability: 182.425  -0.001  88.478  -0.007   0.000  51.097
 Approx polarizability: 272.067  -0.001 140.091  -0.009   0.000  70.250

                      1                      2                      3
                      A                      A                      A
 Frequencies --     69.2232                74.3318               192.1990
 Red. masses --      6.8795                 9.3265                 9.5031
 Frc consts  --      0.0194                 0.0304                 0.2068
 IR Inten    --      0.0044                 0.0003                 6.9952

                      4                      5                      6
                      A                      A                      A
 Frequencies --    214.3760               261.7631               350.2122
 Red. masses --      9.5043                13.1531                 8.4926
 Frc consts  --      0.2573                 0.5310                 0.6137
 IR Inten    --      4.3736                 0.2008                 0.7080

                      7                      8                      9
                      A                      A                      A
 Frequencies --    386.9179               506.6141               560.4541
 Red. masses --      2.5883                 7.9094                 3.5054
 Frc consts  --      0.2283                 1.1960                 0.6487
 IR Inten    --      0.0000                 0.3246                23.3171

                     10                     11                     12
                      A                      A                      A
 Frequencies --    597.2560               682.8980               749.9188
 Red. masses --     10.0794                 7.0567                 3.5609
 Frc consts  --      2.1184                 1.9389                 1.1799
 IR Inten    --     27.8156                 0.1777                 0.1455

                     13                     14                     15
                      A                      A                      A
 Frequencies --    836.4877               850.4107               882.8081
 Red. masses --      1.4637                 6.5508                 1.2475
 Frc consts  --      0.6034                 2.7913                 0.5728
 IR Inten    --     38.3885                 1.3448                 0.0000

                     16                     17                     18
                      A                      A                      A
 Frequencies --    981.9776              1000.1444              1007.3527
 Red. masses --      1.3208                 1.4584                 7.4906
 Frc consts  --      0.7504                 0.8595                 4.4785
 IR Inten    --      0.2640                 0.0000                 4.9722

                     19                     20                     21
                      A                      A                      A
 Frequencies --   1097.2267              1119.0242              1250.9327
 Red. masses --      1.9959                 1.5826                 1.4914
 Frc consts  --      1.4157                 1.1676                 1.3750
 IR Inten    --      2.0481                 0.5198                 5.9816

                     22                     23                     24
                      A                      A                      A
 Frequencies --   1268.7544              1283.6945              1360.5416
 Red. masses --      2.8158                 9.8727                 1.4012
 Frc consts  --      2.6706                 9.5854                 1.5282
 IR Inten    --      0.9037                 0.6633                 0.2481

                     25                     26                     27
                      A                      A                      A
 Frequencies --   1450.7760              1532.5193              1587.0369
 Red. masses --      1.8627                 2.1328                 7.0998
 Frc consts  --      2.3099                 2.9513                10.5359
 IR Inten    --     16.5883                 6.2602                22.1191

                     28                     29                     30
                      A                      A                      A
 Frequencies --   1639.1020              2301.7544              3179.3845
 Red. masses --      5.1337                12.0035                 1.0881
 Frc consts  --      8.1263                37.4693                 6.4802
 IR Inten    --    101.4461                81.7120                28.7343

                     31                     32                     33
                      A                      A                      A
 Frequencies --   3181.8645              3217.3074              3218.1838
 Red. masses --      1.0913                 1.0934                 1.0952
 Frc consts  --      6.5096                 6.6683                 6.6827
 IR Inten    --     12.6817                16.4324                 0.0962

 - Thermochemistry -
 -------------------
 Temperature   298.150 Kelvin.  Pressure   1.00000 Atm.
 Atom     1 has atomic number  6 and mass  12.00000

 Molecular mass:   180.95271 amu.
 Principal axes and moments of inertia in atomic units:
                           1         2         3
     Eigenvalues --   300.244725259.791395560.03608
           X            1.00000   0.00000   0.00007
           Y            0.00000   1.00000   0.00000
           Z           -0.00007   0.00000   1.00000
 This molecule is an asymmetric top.
 Rotational symmetry number  1.
 Rotational temperatures (Kelvin)      0.28848     0.01647     0.01558
 Rotational constants (GHZ):           6.01090     0.34312     0.32459
 Zero-point vibrational energy     232634.5 (Joules/Mol)
                                   55.60098 (Kcal/Mol)
 Warning -- explicit consideration of  10 degrees of freedom as
           vibrations may cause significant error
 Vibrational temperatures:     99.60   106.95   276.53   308.44   376.62
          (Kelvin)            503.88   556.69   728.90   806.37   859.32
                              982.54  1078.97  1203.52  1223.55  1270.16
                             1412.85  1438.98  1449.36  1578.66  1610.03
                             1799.81  1825.45  1846.95  1957.52  2087.34
                             2204.95  2283.39  2358.30  3311.71  4574.43
                             4577.99  4628.99  4630.25

 Zero-point correction=                           0.088606 (Hartree/Particle)
 Thermal correction to Energy=                    0.096477
 Thermal correction to Enthalpy=                  0.097421
 Thermal correction to Gibbs Free Energy=         0.053924
 Sum of electronic and zero-point Energies=           -337.115994
 Sum of electronic and thermal Energies=              -337.108123
 Sum of electronic and thermal Enthalpies=            -337.107179
 Sum of electronic and thermal Free Energies=         -337.150675

                     E (Thermal)             CV                S
                      KCal/Mol        Cal/Mol-Kelvin    Cal/Mol-Kelvin
 Total                   60.540             27.624             91.546
 Electronic               0.000              0.000              0.000
 Translational            0.889              2.981             41.486
 Rotational               0.889              2.981             30.552
 Vibrational             58.763             21.663             19.508
 Vibration     1          0.598              1.969              4.175
 Vibration     2          0.599              1.966              4.035
 Vibration     3          0.634              1.851              2.207
 Vibration     4          0.644              1.819              2.006
 Vibration     5          0.669              1.743              1.650
 Vibration     6          0.727              1.575              1.165
 Vibration     7          0.755              1.498              1.012
 Vibration     8          0.862              1.235              0.642
 Vibration     9          0.916              1.117              0.523
 Vibration    10          0.955              1.038              0.454

 Optimization completed.
    -- Stationary point found.
 Normal termination of Gaussian 16 at Wed Sep 20 06:05:07 2023.
