 Gaussian 09, Revision D.01,
 Gaussian 09:  EM64W-G09RevD.01 13-Apr-2013

 ---------------------------------------------------------------------
 # opt freq rb3lyp/6-31+g(d) geom=connectivity empiricaldispersion=gd3
 ---------------------------------------------------------------------

 -------------------
 Title Card Required
 -------------------
 Symbolic Z-matrix:
 Charge =  0 Multiplicity = 1

 SCF Done:  E(RB3LYP) =  -323.507506096     A.U. after   14 cycles
 SCF Done:  E(RB3LYP) =  -323.519711509     A.U. after   12 cycles
 SCF Done:  E(RB3LYP) =  -323.520697883     A.U. after   12 cycles
 SCF Done:  E(RB3LYP) =  -323.521219424     A.U. after   12 cycles
 SCF Done:  E(RB3LYP) =  -323.521332877     A.U. after   11 cycles
 SCF Done:  E(RB3LYP) =  -323.521370018     A.U. after   10 cycles
 SCF Done:  E(RB3LYP) =  -323.521372286     A.U. after   10 cycles
 SCF Done:  E(RB3LYP) =  -323.521372415     A.U. after    8 cycles
 Optimization completed.
    -- Stationary point found.
 Normal termination of Gaussian 09 at Thu Sep 14 13:15:38 2023.

 ---------------------------------------------------------------------
 #N Geom=AllCheck Guess=TCheck SCRF=Check GenChk RB3LYP/6-31+G(d) Freq
 ---------------------------------------------------------------------

 Structure from the checkpoint file:  "C:\Users\vivek\Downloads\molecule_32.chk"
 -------------------
 Title Card Required
 -------------------
 Charge =  0 Multiplicity = 1

                         Standard orientation:
 ---------------------------------------------------------------------
 Center     Atomic      Atomic             Coordinates (Angstroms)
 Number     Number       Type             X           Y           Z
 ---------------------------------------------------------------------
      1          6           0        0.193133   -1.196594   -0.000061
      2          6           0        0.922478    0.002352    0.000073
      3          6           0       -1.808969   -0.074462   -0.000002
      4          6           0       -1.171357    1.167542   -0.000044
      5          6           0        0.224392    1.211013    0.000027
      6          1           0       -1.752852    2.085323   -0.000083
      7          1           0        0.755818    2.161284   -0.000023
      8          8           0        2.287716   -0.092959   -0.000049
      9          1           0        2.687605    0.790882    0.000220
     10          1           0        0.726951   -2.144384   -0.000076
     11          1           0       -2.894251   -0.143313    0.000008
     12          7           0       -1.140437   -1.237889    0.000055
 ---------------------------------------------------------------------

 SCF Done:  E(RB3LYP) =  -323.521372415     A.U. after    1 cycles

 The electronic state is 1-A.
 Alpha  occ. eigenvalues --  -19.20694 -14.34474 -10.27294 -10.22910 -10.22660
 Alpha  occ. eigenvalues --  -10.22214 -10.21493  -1.08409  -0.94903  -0.81313
 Alpha  occ. eigenvalues --   -0.76795  -0.65960  -0.63936  -0.56316  -0.52536
 Alpha  occ. eigenvalues --   -0.50324  -0.45612  -0.43515  -0.42548  -0.41543
 Alpha  occ. eigenvalues --   -0.37662  -0.37487  -0.29456  -0.26581  -0.24703
 Alpha virt. eigenvalues --   -0.04002  -0.01552  -0.01356   0.00945   0.02864
 Alpha virt. eigenvalues --    0.04056   0.05289   0.05356   0.06377   0.08684
 Alpha virt. eigenvalues --    0.08948   0.09536   0.09778   0.12847   0.13135

 Mulliken charges:
               1
     1  C   -0.125195
     2  C    0.329245
     3  C   -0.364795
     4  C   -0.005402
     5  C   -0.164583
     6  H    0.188507
     7  H    0.176490
     8  O   -0.688936
     9  H    0.471055
    10  H    0.195777
    11  H    0.181243
    12  N   -0.193406
 Sum of Mulliken charges =   0.00000

 Dipole moment (field-independent basis, Debye):
    X=              1.1471    Y=              3.5012    Z=              0.0003  Tot=              3.6843
 Quadrupole moment (field-independent basis, Debye-Ang):
   XX=            -38.0757   YY=            -39.1813   ZZ=            -43.6287
   XY=              0.6135   XZ=              0.0016   YZ=              0.0005

  Exact polarizability:  85.618  -0.905  75.033   0.001   0.000  38.731
 Approx polarizability: 137.109  -2.072 124.199   0.002   0.001  54.699

                      1                      2                      3
                      A                      A                      A
 Frequencies --    227.7443               320.5075               400.3012
 Red. masses --      3.9710                 1.1097                 4.1935
 Frc consts  --      0.1214                 0.0672                 0.3959
 IR Inten    --      0.2537               119.9021                 8.7563

                      4                      5                      6
                      A                      A                      A
 Frequencies --    423.0975               513.9116               551.6601
 Red. masses --      3.3620                 3.5218                 7.3434
 Frc consts  --      0.3546                 0.5480                 1.3167
 IR Inten    --      1.6230                 1.6561                 3.6406

                      7                      8                      9
                      A                      A                      A
 Frequencies --    633.7127               712.1404               804.6405
 Red. masses --      7.7813                 2.4113                 1.5927
 Frc consts  --      1.8412                 0.7205                 0.6075
 IR Inten    --      4.1197                27.4575                40.8779

                     10                     11                     12
                      A                      A                      A
 Frequencies --    838.9395               913.0090               937.1316
 Red. masses --      7.3180                 1.3087                 1.4103
 Frc consts  --      3.0346                 0.6427                 0.7297
 IR Inten    --      9.1014                 0.2709                 3.6771

                     13                     14                     15
                      A                      A                      A
 Frequencies --    978.0578              1029.5275              1066.9805
 Red. masses --      1.3624                 4.1455                 2.5107
 Frc consts  --      0.7678                 2.5888                 1.6840
 IR Inten    --      0.0370                 7.4464                 5.0278

                     16                     17                     18
                      A                      A                      A
 Frequencies --   1141.3255              1182.4505              1236.5962
 Red. masses --      1.5389                 1.3689                 1.2914
 Frc consts  --      1.1811                 1.1277                 1.1635
 IR Inten    --     50.7541               126.5050                19.3165

                     19                     20                     21
                      A                      A                      A
 Frequencies --   1292.7017              1323.6806              1375.8189
 Red. masses --      2.8430                 6.1389                 1.2162
 Frc consts  --      2.7992                 6.3374                 1.3564
 IR Inten    --     75.5835                44.4987                 9.2834

                     22                     23                     24
                      A                      A                      A
 Frequencies --   1496.6501              1516.1764              1633.5423
 Red. masses --      2.3975                 2.2840                 5.8269
 Frc consts  --      3.1641                 3.0935                 9.1612
 IR Inten    --     18.8891                54.6232                34.2705

                     25                     26                     27
                      A                      A                      A
 Frequencies --   1640.1465              3170.5059              3184.7010
 Red. masses --      5.4782                 1.0893                 1.0886
 Frc consts  --      8.6826                 6.4517                 6.5048
 IR Inten    --     21.5476                12.5121                20.8838

                     28                     29                     30
                      A                      A                      A
 Frequencies --   3189.3314              3207.8181              3746.8883
 Red. masses --      1.0917                 1.0967                 1.0665
 Frc consts  --      6.5424                 6.6490                 8.8213
 IR Inten    --     11.6056                16.6096                48.5108

 - Thermochemistry -
 -------------------
 Temperature   298.150 Kelvin.  Pressure   1.00000 Atm.
 Atom     1 has atomic number  6 and mass  12.00000

 Molecular mass:    95.03711 amu.
 Principal axes and moments of inertia in atomic units:
                           1         2         3
     Eigenvalues --   310.99565 674.41787 985.41352
           X            0.99995  -0.01032   0.00000
           Y            0.01032   0.99995   0.00000
           Z            0.00000   0.00000   1.00000
 This molecule is an asymmetric top.
 Rotational symmetry number  1.
 Rotational temperatures (Kelvin)      0.27850     0.12843     0.08790
 Rotational constants (GHZ):           5.80311     2.67600     1.83146
 Zero-point vibrational energy     243378.4 (Joules/Mol)
                                   58.16884 (Kcal/Mol)
 Warning -- explicit consideration of   6 degrees of freedom as
           vibrations may cause significant error
 Vibrational temperatures:    327.67   461.14   575.94   608.74   739.40
          (Kelvin)            793.71   911.77  1024.61  1157.70  1207.05
                             1313.61  1348.32  1407.21  1481.26  1535.15
                             1642.11  1701.28  1779.18  1859.91  1904.48
                             1979.49  2153.34  2181.44  2350.30  2359.80
                             4561.65  4582.07  4588.73  4615.33  5390.93

 Zero-point correction=                           0.092698 (Hartree/Particle)
 Thermal correction to Energy=                    0.098137
 Thermal correction to Enthalpy=                  0.099081
 Thermal correction to Gibbs Free Energy=         0.063719
 Sum of electronic and zero-point Energies=           -323.428674
 Sum of electronic and thermal Energies=              -323.423236
 Sum of electronic and thermal Enthalpies=            -323.422291
 Sum of electronic and thermal Free Energies=         -323.457653

                     E (Thermal)             CV                S
                      KCal/Mol        Cal/Mol-Kelvin    Cal/Mol-Kelvin
 Total                   61.582             20.917             74.425
 Electronic               0.000              0.000              0.000
 Translational            0.889              2.981             39.566
 Rotational               0.889              2.981             26.827
 Vibrational             59.804             14.956              8.032
 Vibration     1          0.651              1.799              1.897
 Vibration     2          0.706              1.634              1.308
 Vibration     3          0.766              1.469              0.962
 Vibration     4          0.785              1.420              0.882
 Vibration     5          0.869              1.219              0.624
 Vibration     6          0.907              1.136              0.541

 Optimization completed.
    -- Stationary point found.
 Normal termination of Gaussian 09 at Thu Sep 14 13:17:03 2023.
