 Gaussian 09, Revision D.01,
 Gaussian 09:  EM64W-G09RevD.01 13-Apr-2013

 --------------------------------------------------------------------
 # opt freq b3lyp/6-31+g(d) geom=connectivity empiricaldispersion=gd3
 --------------------------------------------------------------------

 -------------------
 Title Card Required
 -------------------
 Symbolic Z-matrix:
 Charge =  0 Multiplicity = 2

 SCF Done:  E(UB3LYP) =  -307.685355122     A.U. after   29 cycles
 SCF Done:  E(UB3LYP) =  -307.692512391     A.U. after   20 cycles
 SCF Done:  E(UB3LYP) =  -307.692721452     A.U. after   19 cycles
 SCF Done:  E(UB3LYP) =  -307.692729753     A.U. after   16 cycles
 Optimization completed.
    -- Stationary point found.
 Normal termination of Gaussian 09 at Thu Aug 24 12:10:56 2023.

 ---------------------------------------------------------------------
 #N Geom=AllCheck Guess=TCheck SCRF=Check GenChk UB3LYP/6-31+G(d) Freq
 ---------------------------------------------------------------------

 Structure from the checkpoint file:  "C:\Users\123\Desktop\ML project\molecule_1.chk"
 -------------------
 Title Card Required
 -------------------
 Charge =  0 Multiplicity = 2

                         Standard orientation:
 ---------------------------------------------------------------------
 Center     Atomic      Atomic             Coordinates (Angstroms)
 Number     Number       Type             X           Y           Z
 ---------------------------------------------------------------------
      1          6           0       -1.432861    1.210555    0.000000
      2          6           0       -0.038148    1.215903    0.000000
      3          6           0        0.671969   -0.000001    0.000000
      4          6           0       -0.038150   -1.215903    0.000000
      5          6           0       -1.432862   -1.210554    0.000000
      6          6           0       -2.133613    0.000001    0.000000
      7          1           0       -1.973594    2.153405    0.000000
      8          1           0        0.510313    2.153105    0.000000
      9          1           0        0.510311   -2.153107    0.000000
     10          1           0       -1.973596   -2.153403    0.000000
     11          1           0       -3.220520    0.000001    0.000000
     12          6           0        2.106015   -0.000002   -0.000001
     13          6           0        3.322164    0.000001    0.000001
 ---------------------------------------------------------------------

 SCF Done:  E(UB3LYP) =  -307.692729753     A.U. after    1 cycles

 The electronic state is 2-A.
 Alpha  occ. eigenvalues --  -10.25287 -10.23592 -10.21957 -10.21346 -10.21345
 Alpha  occ. eigenvalues --  -10.21148 -10.21088 -10.21064  -0.87797  -0.80068
 Alpha  occ. eigenvalues --   -0.76484  -0.74786  -0.63823  -0.62394  -0.55532
 Alpha  occ. eigenvalues --   -0.49987  -0.47121  -0.45404  -0.43991  -0.40040
 Alpha  occ. eigenvalues --   -0.39441  -0.37167  -0.36668  -0.32810  -0.30316
 Alpha  occ. eigenvalues --   -0.27059  -0.25510
 Alpha virt. eigenvalues --   -0.05249  -0.02577   0.00062   0.01696   0.02466
 Alpha virt. eigenvalues --    0.02572   0.04427   0.04704   0.05097   0.05478
 Alpha virt. eigenvalues --    0.06046   0.06837   0.08253   0.08747   0.08794

  Beta  occ. eigenvalues --  -10.23505 -10.23215 -10.21907 -10.21391 -10.21390
  Beta  occ. eigenvalues --  -10.21174 -10.21069 -10.21055  -0.87809  -0.79668
  Beta  occ. eigenvalues --   -0.76520  -0.73242  -0.63345  -0.62431  -0.55275
  Beta  occ. eigenvalues --   -0.49822  -0.47158  -0.45215  -0.44000  -0.39474
  Beta  occ. eigenvalues --   -0.37593  -0.36670  -0.32295  -0.28847  -0.27158
  Beta  occ. eigenvalues --   -0.24475
  Beta virt. eigenvalues --   -0.19133  -0.04462  -0.02662   0.00080   0.02068
  Beta virt. eigenvalues --    0.02724   0.03783   0.04769   0.04919   0.05392
  Beta virt. eigenvalues --    0.05723   0.06389   0.07143   0.08744   0.08752

 Mulliken charges and spin densities:
               1          2
     1  C   -0.102549   0.028657
     2  C   -0.151235  -0.037242
     3  C   -0.153513   0.113685
     4  C   -0.151235  -0.037243
     5  C   -0.102549   0.028657
     6  C   -0.180626  -0.032495
     7  H    0.185894  -0.000637
     8  H    0.196315   0.001483
     9  H    0.196315   0.001483
    10  H    0.185894  -0.000637
    11  H    0.183837   0.001462
    12  C   -0.198252  -0.418006
    13  C    0.091703   1.350832
 Sum of Mulliken charges =   0.00000   1.00000

 Dipole moment (field-independent basis, Debye):
    X=             -1.7251    Y=              0.0000    Z=              0.0000  Tot=              1.7251
 Quadrupole moment (field-independent basis, Debye-Ang):
   XX=            -44.4520   YY=            -41.7399   ZZ=            -50.7449
   XY=              0.0000   XZ=              0.0000   YZ=              0.0000

  Exact polarizability: 135.555   0.000  98.041   0.000   0.000  39.382
 Approx polarizability: 222.656   0.000 140.180   0.000   0.000  70.250

 ******    1 imaginary frequencies (negative Signs) ******

                      1                      2                      3
                      A                      A                      A
 Frequencies --   -188.3339               153.3789               310.0168
 Red. masses --     10.5824                 5.5221                 5.8021
 Frc consts  --      0.2212                 0.0765                 0.3286
 IR Inten    --     51.2660                 1.4940                33.9861

                      4                      5                      6
                      A                      A                      A
 Frequencies --    411.1987               420.5558               475.8567
 Red. masses --      2.9091                 4.0074                 8.2890
 Frc consts  --      0.2898                 0.4176                 1.1059
 IR Inten    --      0.0000                18.9514                 0.0515

                      7                      8                      9
                      A                      A                      A
 Frequencies --    630.5823               650.1310               701.6784
 Red. masses --      6.4817                 3.0784                 2.0492
 Frc consts  --      1.5185                 0.7666                 0.5945
 IR Inten    --      0.9421                 3.5126                39.7609

                     10                     11                     12
                      A                      A                      A
 Frequencies --    776.9896               792.6469               853.2580
 Red. masses --      6.0993                 2.0207                 1.2472
 Frc consts  --      2.1695                 0.7480                 0.5350
 IR Inten    --      4.1498               108.8938                 0.0000

                     13                     14                     15
                      A                      A                      A
 Frequencies --    937.9043               981.1598              1005.7750
 Red. masses --      1.4443                 1.3659                 1.2867
 Frc consts  --      0.7486                 0.7747                 0.7669
 IR Inten    --     14.1422                 0.0000                 0.8397

                     16                     17                     18
                      A                      A                      A
 Frequencies --   1013.0107              1052.6818              1105.5155
 Red. masses --      6.2772                 2.2837                 1.6640
 Frc consts  --      3.7953                 1.4910                 1.1982
 IR Inten    --      0.0758                 5.1082                 0.0341

                     19                     20                     21
                      A                      A                      A
 Frequencies --   1201.1711              1213.4227              1222.0777
 Red. masses --      1.1106                 1.5751                 2.0175
 Frc consts  --      0.9441                 1.3664                 1.7753
 IR Inten    --      0.0002                 1.4702                 2.9778

                     22                     23                     24
                      A                      A                      A
 Frequencies --   1316.2222              1362.9624              1474.2396
 Red. masses --      2.9428                 1.7986                 2.1176
 Frc consts  --      3.0038                 1.9686                 2.7117
 IR Inten    --     11.1550                 2.5337                27.3621

                     25                     26                     27
                      A                      A                      A
 Frequencies --   1531.2801              1616.1678              1647.5028
 Red. masses --      2.1418                 4.8416                 5.2965
 Frc consts  --      2.9589                 7.4510                 8.4701
 IR Inten    --     15.6220                 1.3862                 2.9930

                     28                     29                     30
                      A                      A                      A
 Frequencies --   2221.7256              3182.3728              3191.8843
 Red. masses --     11.9986                 1.0858                 1.0889
 Frc consts  --     34.8949                 6.4787                 6.5361
 IR Inten    --     30.9016                 0.1309                 5.9912

                     31                     32                     33
                      A                      A                      A
 Frequencies --   3202.8575              3211.6133              3215.2002
 Red. masses --      1.0926                 1.0941                 1.0971
 Frc consts  --      6.6034                 6.6489                 6.6820
 IR Inten    --     19.6351                22.1365                 3.8858

 - Thermochemistry -
 -------------------
 Temperature   298.150 Kelvin.  Pressure   1.00000 Atm.
 Atom     1 has atomic number  6 and mass  12.00000

 Molecular mass:   101.03913 amu.
 Principal axes and moments of inertia in atomic units:
                           1         2         3
     Eigenvalues --   319.052781119.460961438.51374
           X            1.00000   0.00000   0.00000
           Y            0.00000   1.00000   0.00000
           Z            0.00000   0.00000   1.00000
 This molecule is an asymmetric top.
 Rotational symmetry number  1.
 Rotational temperatures (Kelvin)      0.27147     0.07737     0.06021
 Rotational constants (GHZ):           5.65656     1.61215     1.25459
    1 imaginary frequencies ignored.
 Zero-point vibrational energy     257693.8 (Joules/Mol)
                                   61.59030 (Kcal/Mol)
 Warning -- explicit consideration of   5 degrees of freedom as
           vibrations may cause significant error
 Vibrational temperatures:    220.68   446.04   591.62   605.09   684.65
          (Kelvin)            907.27   935.39  1009.56  1117.91  1140.44
                             1227.65  1349.43  1411.67  1447.08  1457.49
                             1514.57  1590.59  1728.22  1745.84  1758.30
                             1893.75  1961.00  2121.10  2203.17  2325.30
                             2370.39  3196.56  4578.72  4592.40  4608.19
                             4620.79  4625.95

 Zero-point correction=                           0.098150 (Hartree/Particle)
 Thermal correction to Energy=                    0.103774
 Thermal correction to Enthalpy=                  0.104719
 Thermal correction to Gibbs Free Energy=         0.067750
 Sum of electronic and zero-point Energies=           -307.594579
 Sum of electronic and thermal Energies=              -307.588955
 Sum of electronic and thermal Enthalpies=            -307.588011
 Sum of electronic and thermal Free Energies=         -307.624980

                     E (Thermal)             CV                S
                      KCal/Mol        Cal/Mol-Kelvin    Cal/Mol-Kelvin
 Total                   65.119             21.612             77.807
 Electronic               0.000              0.000              1.377
 Translational            0.889              2.981             39.749
 Rotational               0.889              2.981             27.732
 Vibrational             63.342             15.650              8.949
 Vibration     1          0.619              1.899              2.630
 Vibration     2          0.699              1.655              1.362
 Vibration     3          0.775              1.446              0.922
 Vibration     4          0.783              1.426              0.890
 Vibration     5          0.832              1.304              0.721

 Optimization completed.
    -- Stationary point found.
 Normal termination of Gaussian 09 at Thu Aug 24 12:18:21 2023.
