 Gaussian 09, Revision D.01,
 Gaussian 09:  EM64W-G09RevD.01 13-Apr-2013

 ---------------------------------------------------------------------
 # opt freq rb3lyp/6-31+g(d) geom=connectivity empiricaldispersion=gd3
 ---------------------------------------------------------------------

 -------------------
 Title Card Required
 -------------------
 Symbolic Z-matrix:
 Charge =  0 Multiplicity = 1

 SCF Done:  E(RB3LYP) =  -399.724073780     A.U. after   15 cycles
 SCF Done:  E(RB3LYP) =  -399.734396517     A.U. after   13 cycles
 SCF Done:  E(RB3LYP) =  -399.735677448     A.U. after   13 cycles
 SCF Done:  E(RB3LYP) =  -399.736214503     A.U. after   12 cycles
 SCF Done:  E(RB3LYP) =  -399.736304111     A.U. after   11 cycles
 SCF Done:  E(RB3LYP) =  -399.736318307     A.U. after   11 cycles
 SCF Done:  E(RB3LYP) =  -399.736318845     A.U. after    9 cycles
 Optimization completed.
    -- Stationary point found.
 Normal termination of Gaussian 09 at Thu Sep 14 13:20:04 2023.

 ---------------------------------------------------------------------
 #N Geom=AllCheck Guess=TCheck SCRF=Check GenChk RB3LYP/6-31+G(d) Freq
 ---------------------------------------------------------------------

 Structure from the checkpoint file:  "C:\Users\vivek\Downloads\molecule_34.chk"
 -------------------
 Title Card Required
 -------------------
 Charge =  0 Multiplicity = 1

                         Standard orientation:
 ---------------------------------------------------------------------
 Center     Atomic      Atomic             Coordinates (Angstroms)
 Number     Number       Type             X           Y           Z
 ---------------------------------------------------------------------
      1          6           0       -1.010909    1.225426   -0.000060
      2          6           0        0.377876    1.217662    0.000045
      3          6           0       -1.714108    0.012964   -0.000271
      4          6           0        1.084010   -0.001191   -0.000065
      5          6           0        0.370474   -1.211919   -0.000006
      6          6           0       -1.021462   -1.205634   -0.000100
      7          1           0        0.908850   -2.154642    0.000072
      8          1           0       -1.568825   -2.145902   -0.000031
      9          8           0       -3.076069    0.088921    0.000114
     10          1           0       -3.467018   -0.799093    0.000994
     11          1           0       -1.568368    2.156549   -0.000018
     12          1           0        0.925916    2.154795    0.000099
     13          6           0        2.516284   -0.007917    0.000009
     14          7           0        3.680715   -0.014204    0.000095
 ---------------------------------------------------------------------

 SCF Done:  E(RB3LYP) =  -399.736318845     A.U. after    1 cycles

 The electronic state is 1-A.
 Alpha  occ. eigenvalues --  -19.22001 -14.34460 -10.29091 -10.24659 -10.23737
 Alpha  occ. eigenvalues --  -10.23561 -10.23323 -10.22796 -10.22137  -1.09828
 Alpha  occ. eigenvalues --   -0.91534  -0.88671  -0.79042  -0.78664  -0.67357
 Alpha  occ. eigenvalues --   -0.65205  -0.58144  -0.57514  -0.51093  -0.47739
 Alpha  occ. eigenvalues --   -0.46028  -0.44460  -0.44068  -0.41619  -0.39688
 Alpha  occ. eigenvalues --   -0.37928  -0.36681  -0.33956  -0.33862  -0.28995
 Alpha  occ. eigenvalues --   -0.25491
 Alpha virt. eigenvalues --   -0.05489  -0.04349  -0.02179   0.00134   0.01566
 Alpha virt. eigenvalues --    0.02193   0.03167   0.03957   0.04566   0.05623
 Alpha virt. eigenvalues --    0.06645   0.06989   0.07668   0.07964   0.08137

 Mulliken charges:
               1
     1  C    0.136381
     2  C   -0.512467
     3  C    0.026880
     4  C    0.853607
     5  C   -0.561724
     6  C    0.271550
     7  H    0.208332
     8  H    0.178140
     9  O   -0.666695
    10  H    0.479383
    11  H    0.204567
    12  H    0.208800
    13  C   -0.296236
    14  N   -0.530517
 Sum of Mulliken charges =   0.00000

 Dipole moment (field-independent basis, Debye):
    X=             -5.0600    Y=             -1.4057    Z=              0.0013  Tot=              5.2516
 Quadrupole moment (field-independent basis, Debye-Ang):
   XX=            -67.6874   YY=            -43.6709   ZZ=            -54.8220
   XY=              5.8923   XZ=             -0.0062   YZ=             -0.0021

  Exact polarizability: 138.568   1.216  85.288   0.002  -0.001  47.491
 Approx polarizability: 224.849   0.793 138.736   0.007  -0.001  67.917

                      1                      2                      3
                      A                      A                      A
 Frequencies --    105.1329               152.8575               261.3325
 Red. masses --      8.2001                 8.1061                 6.5376
 Frc consts  --      0.0534                 0.1116                 0.2631
 IR Inten    --      2.0200                 5.5944                 2.0957

                      4                      5                      6
                      A                      A                      A
 Frequencies --    370.5014               404.8446               416.8483
 Red. masses --      1.1085                 4.5118                 9.7851
 Frc consts  --      0.0897                 0.4357                 1.0018
 IR Inten    --    121.8330                10.4754                 0.3241

                      7                      8                      9
                      A                      A                      A
 Frequencies --    417.0491               479.6038               555.4742
 Red. masses --      3.0300                 4.9280                 3.0814
 Frc consts  --      0.3105                 0.6679                 0.5602
 IR Inten    --      0.0001                 1.0456                27.5647

                     10                     11                     12
                      A                      A                      A
 Frequencies --    557.0387               660.6900               707.0948
 Red. masses --      7.3693                 7.2049                 4.2266
 Frc consts  --      1.3473                 1.8530                 1.2451
 IR Inten    --      0.8811                 0.6024                 0.0076

                     13                     14                     15
                      A                      A                      A
 Frequencies --    709.3254               819.5223               849.3290
 Red. masses --      6.3531                 1.3174                 1.5918
 Frc consts  --      1.8833                 0.5213                 0.6765
 IR Inten    --     15.9660                15.8259                49.6902

                     16                     17                     18
                      A                      A                      A
 Frequencies --    851.0766               954.1757               975.3408
 Red. masses --      6.4792                 1.3076                 1.3285
 Frc consts  --      2.7651                 0.7014                 0.7446
 IR Inten    --      6.9631                 0.4159                 0.0003

                     19                     20                     21
                      A                      A                      A
 Frequencies --   1031.5351              1141.4602              1193.8783
 Red. masses --      2.7435                 1.4128                 1.3435
 Frc consts  --      1.7200                 1.0846                 1.1283
 IR Inten    --      0.5191                22.5060               163.4780

                     22                     23                     24
                      A                      A                      A
 Frequencies --   1209.9510              1229.9419              1303.7325
 Red. masses --      1.2519                 2.8402                 3.7603
 Frc consts  --      1.0798                 2.5315                 3.7657
 IR Inten    --     23.1605                 4.5770               126.7792

                     25                     26                     27
                      A                      A                      A
 Frequencies --   1336.2581              1377.7642              1472.4317
 Red. masses --      2.0950                 2.1256                 2.8230
 Frc consts  --      2.2040                 2.3773                 3.6061
 IR Inten    --      0.5502                35.9464                13.5631

                     28                     29                     30
                      A                      A                      A
 Frequencies --   1552.9629              1627.8566              1661.6946
 Red. masses --      2.5600                 5.8062                 5.6185
 Frc consts  --      3.6376                 9.0652                 9.1405
 IR Inten    --     92.3831                20.3081               124.3130

                     31                     32                     33
                      A                      A                      A
 Frequencies --   2331.0274              3178.5517              3209.4783
 Red. masses --     12.6780                 1.0899                 1.0890
 Frc consts  --     40.5877                 6.4877                 6.6092
 IR Inten    --     71.0388                13.3788                 2.0169

                     34                     35                     36
                      A                      A                      A
 Frequencies --   3215.9324              3224.6947              3748.4779
 Red. masses --      1.0937                 1.0954                 1.0664
 Frc consts  --      6.6641                 6.7113                 8.8283
 IR Inten    --      3.1252                 2.3873                75.2988

 - Thermochemistry -
 -------------------
 Temperature   298.150 Kelvin.  Pressure   1.00000 Atm.
 Atom     1 has atomic number  6 and mass  12.00000

 Molecular mass:   119.03711 amu.
 Principal axes and moments of inertia in atomic units:
                           1         2         3
     Eigenvalues --   322.532531832.449722154.98224
           X            0.99998   0.00662  -0.00001
           Y           -0.00662   0.99998  -0.00001
           Z            0.00001   0.00001   1.00000
 This molecule is an asymmetric top.
 Rotational symmetry number  1.
 Rotational temperatures (Kelvin)      0.26854     0.04727     0.04019
 Rotational constants (GHZ):           5.59553     0.98488     0.83747
 Zero-point vibrational energy     270923.5 (Joules/Mol)
                                   64.75226 (Kcal/Mol)
 Warning -- explicit consideration of  10 degrees of freedom as
           vibrations may cause significant error
 Vibrational temperatures:    151.26   219.93   376.00   533.07   582.48
          (Kelvin)            599.75   600.04   690.04   799.20   801.45
                              950.58  1017.35  1020.56  1179.11  1221.99
                             1224.51  1372.84  1403.30  1484.15  1642.30
                             1717.72  1740.85  1769.61  1875.78  1922.57
                             1982.29  2118.50  2234.36  2342.12  2390.80
                             3353.82  4573.22  4617.72  4627.00  4639.61
                             5393.22

 Zero-point correction=                           0.103189 (Hartree/Particle)
 Thermal correction to Energy=                    0.110479
 Thermal correction to Enthalpy=                  0.111423
 Thermal correction to Gibbs Free Energy=         0.071428
 Sum of electronic and zero-point Energies=           -399.633130
 Sum of electronic and thermal Energies=              -399.625840
 Sum of electronic and thermal Enthalpies=            -399.624896
 Sum of electronic and thermal Free Energies=         -399.664890

                     E (Thermal)             CV                S
                      KCal/Mol        Cal/Mol-Kelvin    Cal/Mol-Kelvin
 Total                   69.326             27.901             84.176
 Electronic               0.000              0.000              0.000
 Translational            0.889              2.981             40.238
 Rotational               0.889              2.981             28.634
 Vibrational             67.549             21.939             15.304
 Vibration     1          0.605              1.945              3.357
 Vibration     2          0.619              1.900              2.636
 Vibration     3          0.669              1.744              1.653
 Vibration     4          0.743              1.533              1.078
 Vibration     5          0.770              1.460              0.945
 Vibration     6          0.780              1.434              0.903
 Vibration     7          0.780              1.433              0.902
 Vibration     8          0.836              1.295              0.711
 Vibration     9          0.911              1.128              0.533
 Vibration    10          0.913              1.124              0.530

 Optimization completed.
    -- Stationary point found.
 Normal termination of Gaussian 09 at Thu Sep 14 13:24:31 2023.
