 Gaussian 09, Revision D.01,
 Gaussian 09:  EM64W-G09RevD.01 13-Apr-2013

 --------------------------------------------------------------------
 # opt freq b3lyp/6-31+g(d) geom=connectivity empiricaldispersion=gd3
 --------------------------------------------------------------------

 -------------------
 Title Card Required
 -------------------
 Symbolic Z-matrix:
 Charge =  0 Multiplicity = 2

 SCF Done:  E(UB3LYP) =  -347.007944788     A.U. after   37 cycles
 SCF Done:  E(UB3LYP) =  -347.029427057     A.U. after   26 cycles
 SCF Done:  E(UB3LYP) =  -347.032289534     A.U. after   24 cycles
 SCF Done:  E(UB3LYP) =  -347.032417597     A.U. after   20 cycles
 SCF Done:  E(UB3LYP) =  -347.032430415     A.U. after   18 cycles
 SCF Done:  E(UB3LYP) =  -347.032434668     A.U. after   17 cycles
 SCF Done:  E(UB3LYP) =  -347.032438020     A.U. after   17 cycles
 SCF Done:  E(UB3LYP) =  -347.032440535     A.U. after   17 cycles
 SCF Done:  E(UB3LYP) =  -347.032441015     A.U. after   17 cycles
 Optimization completed.
    -- Stationary point found.
 Normal termination of Gaussian 09 at Thu Aug 24 15:24:39 2023.

 ---------------------------------------------------------------------
 #N Geom=AllCheck Guess=TCheck SCRF=Check GenChk UB3LYP/6-31+G(d) Freq
 ---------------------------------------------------------------------

 Structure from the checkpoint file:  "C:\Users\123\Desktop\ML project\molecule_3.chk"
 -------------------
 Title Card Required
 -------------------
 Charge =  0 Multiplicity = 2

                         Standard orientation:
 ---------------------------------------------------------------------
 Center     Atomic      Atomic             Coordinates (Angstroms)
 Number     Number       Type             X           Y           Z
 ---------------------------------------------------------------------
      1          6           0       -0.924859    1.213725   -0.012071
      2          6           0        0.459479    1.223591   -0.004517
      3          6           0        1.192378    0.000019    0.000187
      4          6           0        0.459496   -1.223573   -0.004514
      5          6           0       -0.924838   -1.213727   -0.012074
      6          6           0       -1.644059   -0.000005   -0.013242
      7          1           0       -1.470545    2.154269   -0.018503
      8          1           0        1.011372    2.158430   -0.004796
      9          1           0        1.011416   -2.158397   -0.004797
     10          1           0       -1.470509   -2.154279   -0.018509
     11          6           0        2.587669    0.000010    0.007194
     12          6           0        3.869783   -0.000020    0.011325
     13          6           0       -3.149511   -0.000015    0.016691
     14          1           0       -3.562878   -0.888930   -0.471357
     15          1           0       -3.509201   -0.000052    1.055388
     16          1           0       -3.562890    0.888926   -0.471299
 ---------------------------------------------------------------------

 SCF Done:  E(UB3LYP) =  -347.032441015     A.U. after    1 cycles

 The electronic state is 2-A.
 Alpha  occ. eigenvalues --  -10.25447 -10.25221 -10.23891 -10.23891 -10.23016
 Alpha  occ. eigenvalues --  -10.23015 -10.21981 -10.20395 -10.19950  -0.90343
 Alpha  occ. eigenvalues --   -0.83041  -0.78926  -0.76285  -0.71264  -0.64761
 Alpha  occ. eigenvalues --   -0.63483  -0.56954  -0.50616  -0.50173  -0.46558
 Alpha  occ. eigenvalues --   -0.46122  -0.45903  -0.42405  -0.40817  -0.39535
 Alpha  occ. eigenvalues --   -0.38045  -0.33231  -0.29770  -0.26850  -0.26795
 Alpha  occ. eigenvalues --   -0.25316
 Alpha virt. eigenvalues --   -0.06987  -0.04899  -0.01050   0.00896   0.00911
 Alpha virt. eigenvalues --    0.02418   0.03699   0.03800   0.04127   0.04355
 Alpha virt. eigenvalues --    0.05274   0.06451   0.06904   0.07121   0.07350

  Beta  occ. eigenvalues --  -10.25267 -10.25155 -10.23691 -10.23690 -10.23112
  Beta  occ. eigenvalues --  -10.23112 -10.21996 -10.19928 -10.19461  -0.89978
  Beta  occ. eigenvalues --   -0.82489  -0.78748  -0.75252  -0.69863  -0.64536
  Beta  occ. eigenvalues --   -0.62966  -0.56703  -0.50501  -0.49923  -0.46341
  Beta  occ. eigenvalues --   -0.46064  -0.45435  -0.42362  -0.39759  -0.39380
  Beta  occ. eigenvalues --   -0.37936  -0.30582  -0.29265  -0.26024  -0.25806
  Beta virt. eigenvalues --   -0.17076  -0.04990  -0.04202  -0.01037   0.00913
  Beta virt. eigenvalues --    0.00940   0.02929   0.03748   0.04119   0.04268
  Beta virt. eigenvalues --    0.04407   0.05670   0.07017   0.07111   0.07357

 Mulliken charges and spin densities:
               1          2
     1  C   -0.168628  -0.099900
     2  C   -0.060716   0.147968
     3  C   -0.548291  -0.042334
     4  C   -0.060729   0.147954
     5  C   -0.168567  -0.099904
     6  C    0.305383   0.232564
     7  H    0.191722   0.003094
     8  H    0.215855  -0.007147
     9  H    0.215857  -0.007146
    10  H    0.191722   0.003094
    11  C    1.298221   0.335925
    12  C   -1.323278   0.385798
    13  C   -0.770154  -0.021492
    14  H    0.219706   0.003458
    15  H    0.242193   0.014611
    16  H    0.219704   0.003457
 Sum of Mulliken charges =   0.00000   1.00000

 Dipole moment (field-independent basis, Debye):
    X=             -7.8498    Y=              0.0000    Z=              0.0423  Tot=              7.8499
 Quadrupole moment (field-independent basis, Debye-Ang):
   XX=            -76.4326   YY=            -47.7003   ZZ=            -55.5853
   XY=              0.0001   XZ=             -0.2630   YZ=              0.0000

  Exact polarizability: 201.832  -0.040  95.762  -0.779  -0.045  63.851
 Approx polarizability: 307.173  -0.001 152.387  -0.629   0.000  87.088

                      1                      2                      3
                      A                      A                      A
 Frequencies --     21.8723                66.9559               134.4976
 Red. masses --      1.0378                 6.8893                 7.1236
 Frc consts  --      0.0003                 0.0182                 0.0759
 IR Inten    --      0.2968                22.5183                 4.4613

                      4                      5                      6
                      A                      A                      A
 Frequencies --    148.6079               297.5213               346.8505
 Red. masses --      5.3585                 4.4532                 2.8334
 Frc consts  --      0.0697                 0.2323                 0.2008
 IR Inten    --     20.7753                 3.4490                 0.0132

                      7                      8                      9
                      A                      A                      A
 Frequencies --    389.6950               421.7160               502.4457
 Red. masses --      2.9302                 7.0223                 6.1364
 Frc consts  --      0.2622                 0.7358                 0.9127
 IR Inten    --      0.0535                 0.6540                 3.1869

                     10                     11                     12
                      A                      A                      A
 Frequencies --    504.3603               645.3741               701.2142
 Red. masses --      2.5998                 7.0437                 4.3596
 Frc consts  --      0.3896                 1.7285                 1.2630
 IR Inten    --     30.1943                 0.7270                 1.0811

                     13                     14                     15
                      A                      A                      A
 Frequencies --    718.2692               823.9971               834.7323
 Red. masses --      3.3657                 5.0543                 1.5026
 Frc consts  --      1.0231                 2.0219                 0.6169
 IR Inten    --      5.3115                 1.6227                30.7345

                     16                     17                     18
                      A                      A                      A
 Frequencies --    840.8687               987.5027               990.8341
 Red. masses --      1.2461                 1.2986                 1.3609
 Frc consts  --      0.5191                 0.7461                 0.7872
 IR Inten    --      0.0134                 0.4579                 0.0030

                     19                     20                     21
                      A                      A                      A
 Frequencies --   1020.0947              1028.0977              1062.4917
 Red. masses --      1.4147                 2.8546                 1.5819
 Frc consts  --      0.8673                 1.7777                 1.0522
 IR Inten    --      0.4677                 0.4549                22.0413

                     22                     23                     24
                      A                      A                      A
 Frequencies --   1153.4365              1187.0141              1240.0187
 Red. masses --      1.3617                 2.3430                 2.7274
 Frc consts  --      1.0674                 1.9450                 2.4709
 IR Inten    --      4.2512                99.5429                 3.2327

                     25                     26                     27
                      A                      A                      A
 Frequencies --   1240.7326              1322.7718              1346.1452
 Red. masses --      1.7741                 2.4522                 2.0822
 Frc consts  --      1.6091                 2.5280                 2.2230
 IR Inten    --      1.2921                 3.0177                 5.8952

                     28                     29                     30
                      A                      A                      A
 Frequencies --   1435.4485              1455.7143              1498.5572
 Red. masses --      1.2257                 2.5875                 1.1839
 Frc consts  --      1.4881                 3.2306                 1.5665
 IR Inten    --      3.0607                 6.3550                11.8675

                     31                     32                     33
                      A                      A                      A
 Frequencies --   1511.3460              1521.0949              1559.4803
 Red. masses --      1.0728                 2.1265                 3.5146
 Frc consts  --      1.4437                 2.8988                 5.0360
 IR Inten    --     10.0617                 0.3501                 0.6699

                     34                     35                     36
                      A                      A                      A
 Frequencies --   1632.5929              1994.6636              3035.3444
 Red. masses --      5.0072                11.9669                 1.0430
 Frc consts  --      7.8632                28.0524                 5.6615
 IR Inten    --    190.5092               116.9240                 8.5492

                     37                     38                     39
                      A                      A                      A
 Frequencies --   3096.3059              3127.6864              3187.0448
 Red. masses --      1.0919                 1.1035                 1.0893
 Frc consts  --      6.1674                 6.3601                 6.5192
 IR Inten    --     17.5633                11.6168                10.4640

                     40                     41                     42
                      A                      A                      A
 Frequencies --   3187.9538              3219.5470              3220.9488
 Red. masses --      1.0898                 1.0935                 1.0947
 Frc consts  --      6.5254                 6.6779                 6.6912
 IR Inten    --     10.9858                 5.3316                 0.6069

 - Thermochemistry -
 -------------------
 Temperature   298.150 Kelvin.  Pressure   1.00000 Atm.
 Atom     1 has atomic number  6 and mass  12.00000

 Molecular mass:   115.05478 amu.
 Principal axes and moments of inertia in atomic units:
                           1         2         3
     Eigenvalues --   332.847741782.099702103.64542
           X            1.00000   0.00000  -0.00061
           Y            0.00000   1.00000   0.00000
           Z            0.00061   0.00000   1.00000
 This molecule is an asymmetric top.
 Rotational symmetry number  1.
 Rotational temperatures (Kelvin)      0.26022     0.04860     0.04117
 Rotational constants (GHZ):           5.42212     1.01270     0.85791
 Zero-point vibrational energy     326950.4 (Joules/Mol)
                                   78.14303 (Kcal/Mol)
 Warning -- explicit consideration of  10 degrees of freedom as
           vibrations may cause significant error
 Vibrational temperatures:     31.47    96.33   193.51   213.81   428.07
          (Kelvin)            499.04   560.68   606.75   722.91   725.66
                              928.55  1008.89  1033.43  1185.55  1200.99
                             1209.82  1420.79  1425.59  1467.69  1479.20
                             1528.69  1659.54  1707.85  1784.11  1785.14
                             1903.17  1936.80  2065.29  2094.45  2156.09
                             2174.49  2188.51  2243.74  2348.93  2869.87
                             4367.18  4454.89  4500.04  4585.44  4586.75
                             4632.20  4634.22

 Zero-point correction=                           0.124529 (Hartree/Particle)
 Thermal correction to Energy=                    0.133067
 Thermal correction to Enthalpy=                  0.134012
 Thermal correction to Gibbs Free Energy=         0.089142
 Sum of electronic and zero-point Energies=           -346.907912
 Sum of electronic and thermal Energies=              -346.899374
 Sum of electronic and thermal Enthalpies=            -346.898429
 Sum of electronic and thermal Free Energies=         -346.943299

                     E (Thermal)             CV                S
                      KCal/Mol        Cal/Mol-Kelvin    Cal/Mol-Kelvin
 Total                   83.501             30.141             94.437
 Electronic               0.000              0.000              1.377
 Translational            0.889              2.981             40.136
 Rotational               0.889              2.981             28.614
 Vibrational             81.724             24.179             24.310
 Vibration     1          0.593              1.985              6.457
 Vibration     2          0.598              1.970              4.241
 Vibration     3          0.613              1.919              2.881
 Vibration     4          0.618              1.904              2.690
 Vibration     5          0.691              1.678              1.431
 Vibration     6          0.725              1.582              1.180
 Vibration     7          0.758              1.492              1.001
 Vibration     8          0.784              1.423              0.886
 Vibration     9          0.858              1.245              0.652
 Vibration    10          0.860              1.240              0.647

 Optimization completed.
    -- Stationary point found.
 Normal termination of Gaussian 09 at Thu Aug 24 15:37:03 2023.
