 Gaussian 16, Revision B.01,
 Gaussian 16:  EM64L-G16RevB.01 20-Dec-2017

 ----------------------------------------------------------------------
 # opt freq ub3lyp/6-31+g(d) geom=connectivity empiricaldispersion=gd3
 volume
 ----------------------------------------------------------------------

 -------------------
 Title Card Required
 -------------------
 Symbolic Z-matrix:
 Charge =  0 Multiplicity = 2

 SCF Done:  E(UB3LYP) =  -323.730734065     A.U. after   39 cycles
 SCF Done:  E(UB3LYP) =  -323.734503770     A.U. after   27 cycles
 SCF Done:  E(UB3LYP) =  -323.735116006     A.U. after   31 cycles
 SCF Done:  E(UB3LYP) =  -323.735433960     A.U. after   21 cycles
 SCF Done:  E(UB3LYP) =  -323.735332453     A.U. after   21 cycles
 SCF Done:  E(UB3LYP) =  -323.735694941     A.U. after   23 cycles
 SCF Done:  E(UB3LYP) =  -323.735730453     A.U. after   21 cycles
 SCF Done:  E(UB3LYP) =  -323.735734255     A.U. after   22 cycles
 SCF Done:  E(UB3LYP) =  -323.735734680     A.U. after   17 cycles
 Optimization completed.
    -- Stationary point found.
 Normal termination of Gaussian 16 at Sun Sep 17 09:09:50 2023.

 ---------------------------------------------------------------------
 #N Geom=AllCheck Guess=TCheck SCRF=Check GenChk UB3LYP/6-31+G(d) Freq
 ---------------------------------------------------------------------

 Structure from the checkpoint file:  "molecule_5.chk"
 -------------------
 Title Card Required
 -------------------
 Charge =  0 Multiplicity = 2

                         Standard orientation:
 ---------------------------------------------------------------------
 Center     Atomic      Atomic             Coordinates (Angstroms)
 Number     Number       Type             X           Y           Z
 ---------------------------------------------------------------------
      1          6           0       -1.333425   -1.210780    0.000099
      2          6           0        0.643362   -0.035102   -0.000123
      3          6           0       -0.050820    1.204782    0.000009
      4          6           0       -1.443064    1.203405    0.000028
      5          6           0       -2.101592   -0.025454    0.000028
      6          1           0       -1.830532   -2.179223   -0.000013
      7          1           0        0.519731    2.127751    0.000017
      8          1           0       -1.999112    2.136552    0.000032
      9          1           0       -3.186276   -0.083911    0.000008
     10          6           0        2.047728   -0.037970   -0.000085
     11          6           0        3.331383    0.010467    0.000014
     12          7           0       -0.009321   -1.236752    0.000019
 ---------------------------------------------------------------------

 SCF Done:  E(UB3LYP) =  -323.735734680     A.U. after    1 cycles

 The electronic state is 2-A.
 Alpha  occ. eigenvalues --  -14.38063 -10.28820 -10.26972 -10.25698 -10.25648
 Alpha  occ. eigenvalues --  -10.25408 -10.22139 -10.21755  -0.99003  -0.85350
 Alpha  occ. eigenvalues --   -0.83313  -0.76178  -0.68369  -0.67462  -0.58758
 Alpha  occ. eigenvalues --   -0.53589  -0.52899  -0.48236  -0.45319  -0.45131
 Alpha  occ. eigenvalues --   -0.42160  -0.35690  -0.33471  -0.30264  -0.28369
 Alpha  occ. eigenvalues --   -0.28139  -0.27790
 Alpha virt. eigenvalues --   -0.08743  -0.06888  -0.01673   0.00675   0.01871
 Alpha virt. eigenvalues --    0.02522   0.03193   0.03751   0.04031   0.04212
 Alpha virt. eigenvalues --    0.05866   0.07060   0.07756   0.08481   0.09435

  Beta  occ. eigenvalues --  -14.37877 -10.28937 -10.27042 -10.25544 -10.25421
  Beta  occ. eigenvalues --  -10.25376 -10.21571 -10.21284  -0.98697  -0.85026
  Beta  occ. eigenvalues --   -0.82691  -0.74067  -0.67568  -0.67278  -0.58522
  Beta  occ. eigenvalues --   -0.53333  -0.52716  -0.48061  -0.45250  -0.44224
  Beta  occ. eigenvalues --   -0.42011  -0.33506  -0.32176  -0.29957  -0.27523
  Beta  occ. eigenvalues --   -0.27163
  Beta virt. eigenvalues --   -0.18955  -0.07064  -0.06054  -0.01650   0.00711
  Beta virt. eigenvalues --    0.01917   0.02939   0.03812   0.03955   0.04249
  Beta virt. eigenvalues --    0.05384   0.05991   0.07205   0.08138   0.08540

 Mulliken charges and spin densities:
               1          2
     1  C   -0.208247  -0.067905
     2  C   -0.152264  -0.068748
     3  C    0.138558   0.196185
     4  C   -0.422017  -0.126810
     5  C    0.124246   0.231919
     6  H    0.197723   0.001838
     7  H    0.225478  -0.009062
     8  H    0.208066   0.003731
     9  H    0.206146  -0.010318
    10  C    0.586772   0.411855
    11  C   -0.815918   0.344443
    12  N   -0.088542   0.092872
 Sum of Mulliken charges =   0.00000   1.00000

 Dipole moment (field-independent basis, Debye):
    X=             -7.3160    Y=              2.0864    Z=             -0.0003  Tot=              7.6077
 Quadrupole moment (field-independent basis, Debye-Ang):
   XX=            -59.3320   YY=            -44.1601   ZZ=            -47.3851
   XY=              1.6064   XZ=             -0.0008   YZ=              0.0002

  Exact polarizability: 159.248   0.510  81.136  -0.011   0.000  56.152
 Approx polarizability: 256.337   0.809 131.123  -0.004  -0.001  68.374

 ******    1 imaginary frequencies (negative Signs) ******

                      1                      2                      3
                      A                      A                      A
 Frequencies --   -339.3924               134.8667               144.1898
 Red. masses --     11.9805                 5.4547                 7.8860
 Frc consts  --      0.8131                 0.0585                 0.0966
 IR Inten    --    163.7287                 0.4062                 1.5477

                      4                      5                      6
                      A                      A                      A
 Frequencies --    380.5088               452.8020               487.5285
 Red. masses --      3.3081                 3.2449                 8.9294
 Frc consts  --      0.2822                 0.3920                 1.2505
 IR Inten    --      8.4139                 8.5827                 4.6107

                      7                      8                      9
                      A                      A                      A
 Frequencies --    517.8557               631.8064               728.6354
 Red. masses --      8.6509                 7.3226                 1.8095
 Frc consts  --      1.3669                 1.7222                 0.5660
 IR Inten    --      0.6475                 5.6395                20.0439

                     10                     11                     12
                      A                      A                      A
 Frequencies --    788.5965               795.7970               910.4085
 Red. masses --      1.9795                 6.3710                 1.3048
 Frc consts  --      0.7253                 2.3772                 0.6372
 IR Inten    --     18.1101                 0.0363                 0.3938

                     13                     14                     15
                      A                      A                      A
 Frequencies --    989.6322               992.4314              1017.8088
 Red. masses --      1.4265                 7.0417                 1.3542
 Frc consts  --      0.8231                 4.0863                 0.8265
 IR Inten    --      0.0228                14.7433                 0.0666

                     16                     17                     18
                      A                      A                      A
 Frequencies --   1056.4599              1118.1942              1188.8094
 Red. masses --      2.5242                 1.6361                 1.1296
 Frc consts  --      1.6599                 1.2053                 0.9406
 IR Inten    --      6.8994                11.1572                 0.4891

                     19                     20                     21
                      A                      A                      A
 Frequencies --   1205.3157              1292.9212              1345.1272
 Red. masses --      4.9765                 2.6726                 2.6242
 Frc consts  --      4.2597                 2.6323                 2.7975
 IR Inten    --     45.1487                 7.2801                 0.8086

                     22                     23                     24
                      A                      A                      A
 Frequencies --   1451.6010              1473.7785              1579.9391
 Red. masses --      1.9122                 2.1034                 3.9393
 Frc consts  --      2.3740                 2.6917                 5.7937
 IR Inten    --      4.3153                 1.2321                35.2219

                     25                     26                     27
                      A                      A                      A
 Frequencies --   1598.8367              1980.8490              3178.5484
 Red. masses --      4.5925                11.9721                 1.0900
 Frc consts  --      6.9169                27.6774                 6.4885
 IR Inten    --      7.3786               112.1220                13.9297

                     28                     29                     30
                      A                      A                      A
 Frequencies --   3201.3784              3216.1845              3228.5784
 Red. masses --      1.0892                 1.0947                 1.0960
 Frc consts  --      6.5770                 6.6715                 6.7310
 IR Inten    --      4.9975                11.2167                 2.4273

 - Thermochemistry -
 -------------------
 Temperature   298.150 Kelvin.  Pressure   1.00000 Atm.
 Atom     1 has atomic number  6 and mass  12.00000

 Molecular mass:   102.03437 amu.
 Principal axes and moments of inertia in atomic units:
                           1         2         3
     Eigenvalues --   313.401441090.340771403.74220
           X            0.99999   0.00440   0.00002
           Y           -0.00440   0.99999   0.00001
           Z           -0.00002  -0.00001   1.00000
 This molecule is an asymmetric top.
 Rotational symmetry number  1.
 Rotational temperatures (Kelvin)      0.27637     0.07944     0.06170
 Rotational constants (GHZ):           5.75856     1.65521     1.28566
    1 imaginary frequencies ignored.
 Zero-point vibrational energy     221843.8 (Joules/Mol)
                                   53.02194 (Kcal/Mol)
 Warning -- explicit consideration of   6 degrees of freedom as
           vibrations may cause significant error
 Vibrational temperatures:    194.04   207.46   547.47   651.48   701.44
          (Kelvin)            745.08   909.03  1048.34  1134.61  1144.97
                             1309.87  1423.86  1427.89  1464.40  1520.01
                             1608.83  1710.43  1734.18  1860.23  1935.34
                             2088.53  2120.44  2273.18  2300.37  2850.00
                             4573.22  4606.07  4627.37  4645.20

 Zero-point correction=                           0.084496 (Hartree/Particle)
 Thermal correction to Energy=                    0.090382
 Thermal correction to Enthalpy=                  0.091326
 Thermal correction to Gibbs Free Energy=         0.053602
 Sum of electronic and zero-point Energies=           -323.651239
 Sum of electronic and thermal Energies=              -323.645352
 Sum of electronic and thermal Enthalpies=            -323.644408
 Sum of electronic and thermal Free Energies=         -323.682133

                     E (Thermal)             CV                S
                      KCal/Mol        Cal/Mol-Kelvin    Cal/Mol-Kelvin
 Total                   56.716             21.400             79.398
 Electronic               0.000              0.000              1.377
 Translational            0.889              2.981             39.778
 Rotational               0.889              2.981             27.664
 Vibrational             54.938             15.438             10.579
 Vibration     1          0.613              1.919              2.875
 Vibration     2          0.616              1.909              2.748
 Vibration     3          0.750              1.512              1.037
 Vibration     4          0.811              1.355              0.787
 Vibration     5          0.843              1.278              0.690
 Vibration     6          0.873              1.210              0.615

 Optimization completed.
    -- Stationary point found.
 Normal termination of Gaussian 16 at Sun Sep 17 09:10:47 2023.
