 Gaussian 16, Revision B.01,
 Gaussian 16:  EM64L-G16RevB.01 20-Dec-2017

 ----------------------------------------------------------------------
 # opt freq b3lyp/6-31+g(d) empiricaldispersion=gd3 scf=maxcycle=1000 v
 olume
 ----------------------------------------------------------------------

 -------------------
 Title Card Required
 -------------------
 Symbolic Z-matrix:
 Charge =  0 Multiplicity = 1

 SCF Done:  E(RB3LYP) =  -767.081074785     A.U. after   14 cycles
 Optimization completed.
    -- Stationary point found.
 Normal termination of Gaussian 16 at Tue Sep 19 06:43:35 2023.

 ---------------------------------------------------------------------
 #N Geom=AllCheck Guess=TCheck SCRF=Check GenChk RB3LYP/6-31+G(d) Freq
 ---------------------------------------------------------------------

 Structure from the checkpoint file:  "molecule31vol.chk"
 -------------------
 Title Card Required
 -------------------
 Charge =  0 Multiplicity = 1

                         Standard orientation:
 ---------------------------------------------------------------------
 Center     Atomic      Atomic             Coordinates (Angstroms)
 Number     Number       Type             X           Y           Z
 ---------------------------------------------------------------------
      1          6           0        0.151132   -1.864963    0.000000
      2          6           0        1.544082   -1.779107    0.000000
      3          6           0        2.169565   -0.530211    0.000000
      4          6           0        1.392621    0.630546    0.000000
      5          6           0        0.000000    0.545903    0.000000
      6          6           0       -0.635701   -0.706172    0.000000
      7          1           0       -0.338236   -2.837651    0.000000
      8          1           0        3.253063   -0.454606    0.000000
      9          1           0        1.857699    1.611528    0.000000
     10          1           0        2.136230   -2.690225    0.000000
     11          8           0       -1.999977   -0.739062    0.000000
     12          1           0       -2.306080   -1.659364    0.000000
     13         17           0       -0.960768    2.009814    0.000000
 ---------------------------------------------------------------------

 SCF Done:  E(RB3LYP) =  -767.081074785     A.U. after    1 cycles

 The electronic state is 1-A'.
 Alpha  occ. eigenvalues -- -101.55334 -19.20539 -10.27684 -10.25797 -10.21368
 Alpha  occ. eigenvalues --  -10.21359 -10.21223 -10.20580  -9.46814  -7.23241
 Alpha  occ. eigenvalues --   -7.22251  -7.22203  -1.08474  -0.89305  -0.84336
 Alpha  occ. eigenvalues --   -0.76199  -0.74351  -0.64910  -0.61176  -0.56546
 Alpha  occ. eigenvalues --   -0.51053  -0.49174  -0.46025  -0.44148  -0.43548
 Alpha  occ. eigenvalues --   -0.41375  -0.38570  -0.36585  -0.36486  -0.33737
 Alpha  occ. eigenvalues --   -0.31314  -0.26173  -0.23890
 Alpha virt. eigenvalues --   -0.02942  -0.01299  -0.01097   0.00119   0.01753
 Alpha virt. eigenvalues --    0.02659   0.04013   0.05148   0.05838   0.06427
 Alpha virt. eigenvalues --    0.08104   0.08163   0.08485   0.09018   0.11519

 Mulliken charges:
               1
     1  C    0.245294
     2  C   -0.416849
     3  C   -0.099126
     4  C   -0.665122
     5  C    0.665752
     6  C   -0.466918
     7  H    0.169433
     8  H    0.184267
     9  H    0.202010
    10  H    0.184714
    11  O   -0.648458
    12  H    0.480517
    13  Cl   0.164487
 Sum of Mulliken charges =   0.00000

 Dipole moment (field-independent basis, Debye):
    X=              0.9867    Y=             -2.8922    Z=              0.0000  Tot=              3.0559
 Quadrupole moment (field-independent basis, Debye-Ang):
   XX=            -49.5102   YY=            -47.0946   ZZ=            -57.1847
   XY=              5.2304   XZ=              0.0000   YZ=              0.0000

  Exact polarizability: 100.884  -8.494 103.693   0.000   0.000  48.230
 Approx polarizability: 161.209 -10.626 161.018   0.000   0.000  68.948

                      1                      2                      3
                     A"                     A'                     A"
 Frequencies --    153.6857               242.5964               261.9588
 Red. masses --      5.5226                10.0249                 4.2213
 Frc consts  --      0.0769                 0.3476                 0.1707
 IR Inten    --      0.5032                 1.6069                 7.5248

                      4                      5                      6
                     A"                     A'                     A"
 Frequencies --    344.4446               382.7917               450.4714
 Red. masses --      1.1447                 7.8686                 3.2193
 Frc consts  --      0.0800                 0.6793                 0.3849
 IR Inten    --    109.4248                 3.0561                 5.5815

                      7                      8                      9
                     A'                     A"                     A'
 Frequencies --    492.2403               553.7185               564.8795
 Red. masses --      5.2736                 3.8034                 7.6900
 Frc consts  --      0.7529                 0.6871                 1.4457
 IR Inten    --      8.4423                 1.1360                 3.4623

                     10                     11                     12
                     A'                     A"                     A"
 Frequencies --    691.2378               711.0954               756.6001
 Red. masses --      6.4902                 3.7783                 1.2845
 Frc consts  --      1.8271                 1.1256                 0.4332
 IR Inten    --     18.4376                 2.0350                83.3749

                     13                     14                     15
                     A'                     A"                     A"
 Frequencies --    841.9059               846.8469               937.0433
 Red. masses --      6.3482                 1.4320                 1.3502
 Frc consts  --      2.6511                 0.6051                 0.6985
 IR Inten    --     19.6370                 1.0304                 2.1209

                     16                     17                     18
                     A"                     A'                     A'
 Frequencies --    976.5113              1059.3450              1077.3227
 Red. masses --      1.2724                 4.4806                 2.4423
 Frc consts  --      0.7149                 2.9625                 1.6701
 IR Inten    --      0.0444                33.9526                17.2538

                     19                     20                     21
                     A'                     A'                     A'
 Frequencies --   1147.6315              1197.2716              1199.9823
 Red. masses --      1.8143                 1.2404                 1.0899
 Frc consts  --      1.4079                 1.0476                 0.9247
 IR Inten    --     83.5694                74.1257                 4.8781

                     22                     23                     24
                     A'                     A'                     A'
 Frequencies --   1296.1254              1327.5092              1367.6476
 Red. masses --      2.6975                 1.9974                 2.8504
 Frc consts  --      2.6700                 2.0739                 3.1413
 IR Inten    --     24.2472                84.8645                36.2995

                     25                     26                     27
                     A'                     A'                     A'
 Frequencies --   1486.5931              1537.8942              1634.6290
 Red. masses --      2.3614                 2.4692                 5.7588
 Frc consts  --      3.0747                 3.4408                 9.0661
 IR Inten    --     47.5795                57.5525                11.9363

                     28                     29                     30
                     A'                     A'                     A'
 Frequencies --   1645.3454              3165.2079              3192.3352
 Red. masses --      6.1639                 1.0888                 1.0882
 Frc consts  --      9.8314                 6.4270                 6.5339
 IR Inten    --     28.4477                13.3510                 5.7801

                     31                     32                     33
                     A'                     A'                     A'
 Frequencies --   3205.7583              3217.7165              3752.1855
 Red. masses --      1.0928                 1.0961                 1.0663
 Frc consts  --      6.6167                 6.6865                 8.8454
 IR Inten    --     13.0637                 7.1189                58.2795

 - Thermochemistry -
 -------------------
 Temperature   298.150 Kelvin.  Pressure   1.00000 Atm.
 Atom     1 has atomic number  6 and mass  12.00000

 Molecular mass:   128.00289 amu.
 Principal axes and moments of inertia in atomic units:
                           1         2         3
     Eigenvalues --   613.329461178.133091791.46255
           X           -0.62600   0.77982   0.00000
           Y            0.77982   0.62600   0.00000
           Z            0.00000   0.00000   1.00000
 This molecule is an asymmetric top.
 Rotational symmetry number  1.
 Warning -- assumption of classical behavior for rotation
           may cause significant error
 Rotational temperatures (Kelvin)      0.14122     0.07352     0.04835
 Rotational constants (GHZ):           2.94253     1.53187     1.00741
 Zero-point vibrational energy     249532.2 (Joules/Mol)
                                   59.63963 (Kcal/Mol)
 Warning -- explicit consideration of   9 degrees of freedom as
           vibrations may cause significant error
 Vibrational temperatures:    221.12   349.04   376.90   495.58   550.75
          (Kelvin)            648.13   708.22   796.68   812.74   994.54
                             1023.11  1088.58  1211.31  1218.42  1348.20
                             1404.98  1524.16  1550.03  1651.19  1722.61
                             1726.51  1864.84  1909.99  1967.74  2138.88
                             2212.69  2351.87  2367.28  4554.03  4593.06
                             4612.37  4629.58  5398.56

 Zero-point correction=                           0.095042 (Hartree/Particle)
 Thermal correction to Energy=                    0.101725
 Thermal correction to Enthalpy=                  0.102670
 Thermal correction to Gibbs Free Energy=         0.063843
 Sum of electronic and zero-point Energies=           -766.986033
 Sum of electronic and thermal Energies=              -766.979349
 Sum of electronic and thermal Enthalpies=            -766.978405
 Sum of electronic and thermal Free Energies=         -767.017231

                     E (Thermal)             CV                S
                      KCal/Mol        Cal/Mol-Kelvin    Cal/Mol-Kelvin
 Total                   63.834             25.640             81.716
 Electronic               0.000              0.000              0.000
 Translational            0.889              2.981             40.454
 Rotational               0.889              2.981             28.650
 Vibrational             62.056             19.679             12.612
 Vibration     1          0.619              1.899              2.626
 Vibration     2          0.659              1.775              1.784
 Vibration     3          0.669              1.742              1.649
 Vibration     4          0.723              1.587              1.191
 Vibration     5          0.752              1.507              1.028
 Vibration     6          0.809              1.360              0.794
 Vibration     7          0.848              1.267              0.678
 Vibration     8          0.909              1.132              0.537
 Vibration     9          0.921              1.107              0.514

 Optimization completed.
    -- Stationary point found.
 Normal termination of Gaussian 16 at Tue Sep 19 06:44:03 2023.
