 Gaussian 16, Revision B.01,
 Gaussian 16:  EM64L-G16RevB.01 20-Dec-2017

 ----------------------------------------------------------------
 # opt freq b3lyp/6-31+g(d) nosymm empiricaldispersion=gd3 volume
 ----------------------------------------------------------------

 -----------
 molecule_11
 -----------
 Symbolic Z-matrix:
 Charge =  0 Multiplicity = 1

 SCF Done:  E(RB3LYP) =  -560.950077052     A.U. after   16 cycles
 SCF Done:  E(RB3LYP) =  -560.952008156     A.U. after   13 cycles
 SCF Done:  E(RB3LYP) =  -560.952098505     A.U. after   12 cycles
 SCF Done:  E(RB3LYP) =  -560.952073740     A.U. after   12 cycles
 SCF Done:  E(RB3LYP) =  -560.952082975     A.U. after   12 cycles
 SCF Done:  E(RB3LYP) =  -560.952101971     A.U. after   11 cycles
 SCF Done:  E(RB3LYP) =  -560.952104363     A.U. after   11 cycles
 Optimization completed.
    -- Stationary point found.
 Normal termination of Gaussian 16 at Thu Sep 14 11:30:21 2023.

 ---------------------------------------------------------------------
 #N Geom=AllCheck Guess=TCheck SCRF=Check GenChk RB3LYP/6-31+G(d) Freq
 ---------------------------------------------------------------------

 Structure from the checkpoint file:  "MOLECULE_11.chk"
 -----------
 molecule_11
 -----------
 Charge =  0 Multiplicity = 1

                          Input orientation:
 ---------------------------------------------------------------------
 Center     Atomic      Atomic             Coordinates (Angstroms)
 Number     Number       Type             X           Y           Z
 ---------------------------------------------------------------------
      1          6           0       -0.188435   -0.701045    0.580719
      2          6           0        1.198366   -0.601828    0.642049
      3          6           0        1.886134    0.420739   -0.040379
      4          6           0        1.131090    1.341744   -0.787726
      5          6           0       -0.259081    1.248129   -0.853514
      6          6           0       -0.935113    0.224119   -0.169000
      7          1           0       -0.718146   -1.489317    1.106772
      8          1           0        1.764833   -1.323013    1.224924
      9          1           0        1.642377    2.138168   -1.321555
     10          1           0       -0.810653    1.976523   -1.440244
     11          5           0        3.445810    0.529731    0.030269
     12          8           0        4.053021    1.553669   -0.660714
     13          1           0        5.017469    1.603163   -0.603444
     14          8           0        4.124301   -0.403381    0.779625
     15          1           0        5.087487   -0.319036    0.811025
     16          6           0       -2.428629    0.080295   -0.208326
     17          8           0       -2.987075   -0.823730    0.399863
     18          6           0       -3.241776    1.077113   -1.017536
     19          1           0       -3.084279    2.099623   -0.652730
     20          1           0       -2.947098    1.057534   -2.074045
     21          1           0       -4.299484    0.820616   -0.931598
 ---------------------------------------------------------------------

 SCF Done:  E(RB3LYP) =  -560.952104363     A.U. after    1 cycles

 Alpha  occ. eigenvalues --  -19.18819 -19.18785 -19.14588 -10.28351 -10.20965
 Alpha  occ. eigenvalues --  -10.20753 -10.20266 -10.20054 -10.19972 -10.19392
 Alpha  occ. eigenvalues --  -10.18883  -6.80938  -1.06116  -1.04272  -1.02821
 Alpha  occ. eigenvalues --   -0.86440  -0.77717  -0.75575  -0.73502  -0.64122
 Alpha  occ. eigenvalues --   -0.61595  -0.58675  -0.56591  -0.55593  -0.50236
 Alpha  occ. eigenvalues --   -0.46481  -0.45784  -0.45678  -0.44784  -0.43157
 Alpha  occ. eigenvalues --   -0.42757  -0.41822  -0.41205  -0.38982  -0.38069
 Alpha  occ. eigenvalues --   -0.36479  -0.35489  -0.34598  -0.34571  -0.34328
 Alpha  occ. eigenvalues --   -0.26530  -0.26161  -0.25653
 Alpha virt. eigenvalues --   -0.07383  -0.03620  -0.01693   0.00314   0.00528
 Alpha virt. eigenvalues --    0.01238   0.02357   0.02845   0.03862   0.04723
 Alpha virt. eigenvalues --    0.05572   0.05604   0.06583   0.07882   0.08488

 Mulliken charges:
               1
     1  C    0.452028
     2  C   -0.374071
     3  C   -0.618242
     4  C   -0.633645
     5  C   -0.728024
     6  C    0.888715
     7  H    0.218511
     8  H    0.202812
     9  H    0.200711
    10  H    0.180824
    11  B    0.870077
    12  O   -0.790954
    13  H    0.497224
    14  O   -0.787977
    15  H    0.496957
    16  C    0.518922
    17  O   -0.435871
    18  C   -0.854377
    19  H    0.227754
    20  H    0.227796
    21  H    0.240830
 Sum of Mulliken charges =   0.00000

 Dipole moment (field-independent basis, Debye):
    X=              4.7086    Y=              2.2894    Z=             -1.2221  Tot=              5.3764
 Quadrupole moment (field-independent basis, Debye-Ang):
   XX=            -47.3679   YY=            -71.0365   ZZ=            -71.0978
   XY=             -3.8396   XZ=              5.6356   YZ=             -1.1697

  Exact polarizability: 169.809   6.370 101.056   5.338 -24.792  85.039
 Approx polarizability: 230.367  16.089 166.071   0.935 -47.707 133.838

                      1                      2                      3
                      A                      A                      A
 Frequencies --     45.7253                67.8758                73.1564
 Red. masses --      5.4647                 4.2778                 6.5010
 Frc consts  --      0.0067                 0.0116                 0.0205
 IR Inten    --      3.3033                 1.6013                 0.0837

                      4                      5                      6
                      A                      A                      A
 Frequencies --    130.1463               184.9799               216.8050
 Red. masses --      5.6285                 1.0333                 5.0171
 Frc consts  --      0.0562                 0.0208                 0.1389
 IR Inten    --      2.5699                 0.1974                 8.4186

                      7                      8                      9
                      A                      A                      A
 Frequencies --    238.6990               274.8707               400.3164
 Red. masses --      4.5375                 7.5396                 1.3327
 Frc consts  --      0.1523                 0.3356                 0.1258
 IR Inten    --      7.3670                 1.3212                 0.0563

                     10                     11                     12
                      A                      A                      A
 Frequencies --    408.0709               423.3441               433.2922
 Red. masses --      4.4153                 1.8387                 2.8704
 Frc consts  --      0.4332                 0.1942                 0.3175
 IR Inten    --      5.9209                 1.3634                28.5864

                     13                     14                     15
                      A                      A                      A
 Frequencies --    435.7239               487.5376               546.6018
 Red. masses --      5.5169                 4.3690                 1.3418
 Frc consts  --      0.6171                 0.6119                 0.2362
 IR Inten    --     17.5660                16.0181               183.3788

                     16                     17                     18
                      A                      A                      A
 Frequencies --    574.6793               604.0942               645.7144
 Red. masses --      4.1668                 2.4813                 5.1224
 Frc consts  --      0.8108                 0.5335                 1.2584
 IR Inten    --      4.2632                 4.2591                18.6219

                     19                     20                     21
                      A                      A                      A
 Frequencies --    648.5793               659.8021               767.3852
 Red. masses --      4.6740                 4.1890                 3.9517
 Frc consts  --      1.1584                 1.0745                 1.3711
 IR Inten    --     35.8592               104.0862                 3.3314

                     22                     23                     24
                      A                      A                      A
 Frequencies --    783.3350               855.9972               880.9294
 Red. masses --      5.8880                 1.4372                 1.3032
 Frc consts  --      2.1287                 0.6205                 0.5958
 IR Inten    --      0.1003                27.0459                 9.8808

                     25                     26                     27
                      A                      A                      A
 Frequencies --    917.6495               967.9819               994.6054
 Red. masses --      1.1058                 2.2734                 1.3446
 Frc consts  --      0.5486                 1.2550                 0.7837
 IR Inten    --    177.5640                63.1723                 0.0348

                     28                     29                     30
                      A                      A                      A
 Frequencies --    998.3838              1015.4743              1040.7799
 Red. masses --      2.6652                 1.3559                 3.0508
 Frc consts  --      1.5652                 0.8238                 1.9471
 IR Inten    --    184.5827                 0.1496                 0.5081

                     31                     32                     33
                      A                      A                      A
 Frequencies --   1054.2002              1093.8224              1128.7719
 Red. masses --      1.8666                 2.7247                 2.0457
 Frc consts  --      1.2222                 1.9207                 1.5357
 IR Inten    --      0.6076                 4.3039                 0.5398

                     34                     35                     36
                      A                      A                      A
 Frequencies --   1154.4751              1234.2687              1284.3436
 Red. masses --      1.4704                 1.1729                 3.4977
 Frc consts  --      1.1546                 1.0527                 3.3993
 IR Inten    --      7.4824                13.1230               238.4997

                     37                     38                     39
                      A                      A                      A
 Frequencies --   1332.0767              1352.7541              1372.5349
 Red. masses --      5.2895                 1.4829                 3.6329
 Frc consts  --      5.5299                 1.5988                 4.0323
 IR Inten    --     73.9479                27.2745               342.8616

                     40                     41                     42
                      A                      A                      A
 Frequencies --   1384.6043              1407.7535              1443.2830
 Red. masses --      7.8606                 1.3318                 2.6250
 Frc consts  --      8.8789                 1.5551                 3.2217
 IR Inten    --    244.0807                15.3113                93.7123

                     43                     44                     45
                      A                      A                      A
 Frequencies --   1495.6535              1502.7208              1551.8305
 Red. masses --      1.0631                 1.0473                 2.3135
 Frc consts  --      1.4011                 1.3935                 3.2826
 IR Inten    --     10.0085                11.9624                44.1425

                     46                     47                     48
                      A                      A                      A
 Frequencies --   1601.4149              1660.5803              1752.5141
 Red. masses --      5.9057                 5.3502                10.5473
 Frc consts  --      8.9234                 8.6925                19.0860
 IR Inten    --     15.1478                 1.2378               218.9052

                     49                     50                     51
                      A                      A                      A
 Frequencies --   3047.3024              3106.3783              3161.1538
 Red. masses --      1.0381                 1.0998                 1.1014
 Frc consts  --      5.6797                 6.2529                 6.4846
 IR Inten    --      3.4490                 8.7089                13.5941

                     52                     53                     54
                      A                      A                      A
 Frequencies --   3193.0675              3197.0169              3210.4814
 Red. masses --      1.0875                 1.0886                 1.0935
 Frc consts  --      6.5328                 6.5557                 6.6403
 IR Inten    --      3.4118                 4.4973                14.8642

                     55                     56                     57
                      A                      A                      A
 Frequencies --   3218.0866              3789.7047              3793.4333
 Red. masses --      1.0934                 1.0673                 1.0657
 Frc consts  --      6.6714                 9.0315                 9.0353
 IR Inten    --      3.5691                12.2543                78.2890

 - Thermochemistry -
 -------------------
 Temperature   298.150 Kelvin.  Pressure   1.00000 Atm.
 Atom     1 has atomic number  6 and mass  12.00000

 Molecular mass:   164.06447 amu.
 Principal axes and moments of inertia in atomic units:
                           1         2         3
     Eigenvalues --   669.522834102.031254760.30747
           X            0.99677  -0.01994  -0.07779
           Y            0.06209   0.80567   0.58911
           Z            0.05092  -0.59203   0.80430
 This molecule is an asymmetric top.
 Rotational symmetry number  1.
 Warning -- assumption of classical behavior for rotation
           may cause significant error
 Rotational temperatures (Kelvin)      0.12937     0.02111     0.01820
 Rotational constants (GHZ):           2.69556     0.43996     0.37912
 Zero-point vibrational energy     426150.3 (Joules/Mol)
                                  101.85236 (Kcal/Mol)
 Warning -- explicit consideration of  17 degrees of freedom as
           vibrations may cause significant error
 Vibrational temperatures:     65.79    97.66   105.26   187.25   266.14
          (Kelvin)            311.93   343.43   395.48   575.97   587.12
                              609.10   623.41   626.91   701.46   786.44
                              826.84   869.16   929.04   933.16   949.31
                             1104.10  1127.04  1231.59  1267.46  1320.29
                             1392.71  1431.02  1436.45  1461.04  1497.45
                             1516.76  1573.77  1624.05  1661.03  1775.84
                             1847.88  1916.56  1946.31  1974.77  1992.14
                             2025.44  2076.56  2151.91  2162.08  2232.74
                             2304.08  2389.20  2521.48  4384.39  4469.39
                             4548.20  4594.11  4599.79  4619.17  4630.11
                             5452.54  5457.90

 Zero-point correction=                           0.162312 (Hartree/Particle)
 Thermal correction to Energy=                    0.173659
 Thermal correction to Enthalpy=                  0.174603
 Thermal correction to Gibbs Free Energy=         0.124430
 Sum of electronic and zero-point Energies=           -560.789792
 Sum of electronic and thermal Energies=              -560.778445
 Sum of electronic and thermal Enthalpies=            -560.777501
 Sum of electronic and thermal Free Energies=         -560.827674

                     E (Thermal)             CV                S
                      KCal/Mol        Cal/Mol-Kelvin    Cal/Mol-Kelvin
 Total                  108.973             42.696            105.597
 Electronic               0.000              0.000              0.000
 Translational            0.889              2.981             41.194
 Rotational               0.889              2.981             30.948
 Vibrational            107.195             36.734             33.456
 Vibration     1          0.595              1.979              4.994
 Vibration     2          0.598              1.970              4.214
 Vibration     3          0.599              1.967              4.067
 Vibration     4          0.612              1.923              2.944
 Vibration     5          0.631              1.860              2.278
 Vibration     6          0.646              1.815              1.986
 Vibration     7          0.657              1.781              1.813
 Vibration     8          0.677              1.720              1.565
 Vibration     9          0.766              1.469              0.961
 Vibration    10          0.773              1.453              0.933
 Vibration    11          0.786              1.419              0.881
 Vibration    12          0.794              1.398              0.848
 Vibration    13          0.796              1.392              0.840
 Vibration    14          0.843              1.278              0.690
 Vibration    15          0.902              1.147              0.551
 Vibration    16          0.931              1.086              0.495
 Vibration    17          0.963              1.023              0.443

 Optimization completed.
    -- Stationary point found.
 Normal termination of Gaussian 16 at Thu Sep 14 11:32:34 2023.
