 Gaussian 16, Revision B.01,
 Gaussian 16:  EM64L-G16RevB.01 20-Dec-2017

 ----------------------------------------------------------------
 # opt freq b3lyp/6-31+g(d) nosymm empiricaldispersion=gd3 volume
 ----------------------------------------------------------------

 -----------
 molecule_11
 -----------
 Symbolic Z-matrix:
 Charge =  0 Multiplicity = 1

 SCF Done:  E(RB3LYP) =  -867.888711760     A.U. after   15 cycles
 SCF Done:  E(RB3LYP) =  -867.891347209     A.U. after   12 cycles
 SCF Done:  E(RB3LYP) =  -867.891577890     A.U. after   11 cycles
 SCF Done:  E(RB3LYP) =  -867.891590453     A.U. after   10 cycles
 SCF Done:  E(RB3LYP) =  -867.891590998     A.U. after    9 cycles
 Optimization completed.
    -- Stationary point found.
 Normal termination of Gaussian 16 at Fri Sep 15 03:43:28 2023.

 ---------------------------------------------------------------------
 #N Geom=AllCheck Guess=TCheck SCRF=Check GenChk RB3LYP/6-31+G(d) Freq
 ---------------------------------------------------------------------

 Structure from the checkpoint file:  "MOLECULE_23.chk"
 -----------
 molecule_11
 -----------
 Charge =  0 Multiplicity = 1

                          Input orientation:
 ---------------------------------------------------------------------
 Center     Atomic      Atomic             Coordinates (Angstroms)
 Number     Number       Type             X           Y           Z
 ---------------------------------------------------------------------
      1          6           0       -0.207985   -0.648875   -0.322961
      2          6           0        1.184983   -0.658559   -0.337723
      3          6           0        1.898986    0.502516    0.008626
      4          6           0        1.178656    1.656402    0.365014
      5          6           0       -0.217376    1.653035    0.375812
      6          6           0       -0.923140    0.496872    0.030874
      7          1           0        1.717891   -1.561880   -0.616467
      8          1           0       -0.765469    2.550029    0.652713
      9          5           0        3.462948    0.500028   -0.005521
     10          8           0        4.103237   -0.663802   -0.364424
     11          1           0        5.070322   -0.645789   -0.366336
     12          8           0        4.112846    1.661982    0.343486
     13          1           0        5.079765    1.638430    0.328567
     14          1           0       -2.008535    0.480794    0.035189
     15          1           0        1.721018    2.558246    0.634136
     16         17           0       -1.089603   -2.112188   -0.759714
 ---------------------------------------------------------------------

 SCF Done:  E(RB3LYP) =  -867.891590998     A.U. after    1 cycles

 Alpha  occ. eigenvalues -- -101.55006 -19.18682 -19.18659 -10.25518 -10.21049
 Alpha  occ. eigenvalues --  -10.20550 -10.20523 -10.20104 -10.18794  -9.46520
 Alpha  occ. eigenvalues --   -7.22920  -7.21957  -7.21930  -6.80844  -1.05994
 Alpha  occ. eigenvalues --   -1.02701  -0.88998  -0.83480  -0.75991  -0.73516
 Alpha  occ. eigenvalues --   -0.63031  -0.61032  -0.57682  -0.56380  -0.51928
 Alpha  occ. eigenvalues --   -0.46444  -0.46054  -0.45004  -0.43115  -0.41248
 Alpha  occ. eigenvalues --   -0.40935  -0.39072  -0.36679  -0.35469  -0.34625
 Alpha  occ. eigenvalues --   -0.34451  -0.33180  -0.31134  -0.26579  -0.24851
 Alpha virt. eigenvalues --   -0.04428  -0.03532  -0.01906   0.00702   0.01391
 Alpha virt. eigenvalues --    0.01733   0.03047   0.03342   0.04003   0.05756
 Alpha virt. eigenvalues --    0.06268   0.07479   0.07694   0.07907   0.09469

 Mulliken charges:
               1
     1  C    0.233152
     2  C   -0.239865
     3  C   -0.654713
     4  C   -0.106952
     5  C   -0.115764
     6  C   -0.365818
     7  H    0.216997
     8  H    0.184924
     9  B    0.863805
    10  O   -0.781943
    11  H    0.496339
    12  O   -0.790432
    13  H    0.494682
    14  H    0.199082
    15  H    0.201584
    16  Cl   0.164918
 Sum of Mulliken charges =   0.00000

 Dipole moment (field-independent basis, Debye):
    X=              3.5146    Y=              1.6047    Z=              0.4580  Tot=              3.8907
 Quadrupole moment (field-independent basis, Debye-Ang):
   XX=            -35.0829   YY=            -67.3165   ZZ=            -68.2024
   XY=             -0.7208   XZ=             -0.9405   YZ=              0.0556

  Exact polarizability: 129.108  10.915 112.873   2.711  16.752  62.456
 Approx polarizability: 185.260  10.849 175.901   2.436  27.956  91.990

                      1                      2                      3
                      A                      A                      A
 Frequencies --     52.9715               134.6296               134.9160
 Red. masses --      9.2146                 7.4484                 4.5261
 Frc consts  --      0.0152                 0.0795                 0.0485
 IR Inten    --      0.0003                 2.5494                 6.8947

                      4                      5                      6
                      A                      A                      A
 Frequencies --    197.5371               278.7824               340.8254
 Red. masses --      4.7414                 7.6435                 6.8598
 Frc consts  --      0.1090                 0.3500                 0.4695
 IR Inten    --      0.3232                 2.3549                 5.8686

                      7                      8                      9
                      A                      A                      A
 Frequencies --    398.3042               401.0085               424.8811
 Red. masses --      8.8302                 1.1277                 2.3990
 Frc consts  --      0.8254                 0.1068                 0.2552
 IR Inten    --      2.9375                 1.6286                21.9919

                     10                     11                     12
                      A                      A                      A
 Frequencies --    464.3456               479.2647               552.8463
 Red. masses --      6.8501                 2.6195                 3.4858
 Frc consts  --      0.8702                 0.3545                 0.6277
 IR Inten    --      7.7400                16.2261                52.9885

                     13                     14                     15
                      A                      A                      A
 Frequencies --    559.3648               667.1834               681.6477
 Red. masses --      1.5611                 5.9664                 6.7081
 Frc consts  --      0.2878                 1.5648                 1.8364
 IR Inten    --    218.0924                25.1720                17.7890

                     16                     17                     18
                      A                      A                      A
 Frequencies --    717.2621               799.8760               807.3980
 Red. masses --      2.4339                 7.1299                 1.5030
 Frc consts  --      0.7378                 2.6877                 0.5773
 IR Inten    --     50.3736                38.7673                25.0000

                     19                     20                     21
                      A                      A                      A
 Frequencies --    917.0851               933.4272               937.8817
 Red. masses --      1.1062                 1.4001                 1.3574
 Frc consts  --      0.5481                 0.7187                 0.7035
 IR Inten    --    172.7620                 6.8552                 0.0006

                     22                     23                     24
                      A                      A                      A
 Frequencies --    999.4924              1001.6952              1013.8593
 Red. masses --      1.3279                 2.6067                 4.7042
 Frc consts  --      0.7816                 1.5410                 2.8490
 IR Inten    --      0.1785               123.4591                26.1825

                     25                     26                     27
                      A                      A                      A
 Frequencies --   1105.6332              1119.2321              1143.7786
 Red. masses --      3.0166                 1.7332                 1.9019
 Frc consts  --      2.1726                 1.2792                 1.4659
 IR Inten    --     38.2570                 4.7355                11.1595

                     28                     29                     30
                      A                      A                      A
 Frequencies --   1213.2389              1314.4848              1352.8965
 Red. masses --      1.1448                 2.5151                 2.0644
 Frc consts  --      0.9928                 2.5605                 2.2262
 IR Inten    --      0.1806                15.5786                86.7032

                     31                     32                     33
                      A                      A                      A
 Frequencies --   1368.8186              1378.8409              1451.1118
 Red. masses --      2.9050                 7.4295                 3.0911
 Frc consts  --      3.2069                 8.3223                 3.8349
 IR Inten    --    305.5885               267.3243               119.8555

                     34                     35                     36
                      A                      A                      A
 Frequencies --   1520.1079              1611.3935              1644.5704
 Red. masses --      2.3563                 5.2302                 5.5784
 Frc consts  --      3.2080                 8.0015                 8.8893
 IR Inten    --     13.8161                13.9210                 9.4050

                     37                     38                     39
                      A                      A                      A
 Frequencies --   3186.3349              3207.8403              3216.6617
 Red. masses --      1.0875                 1.0919                 1.0947
 Frc consts  --      6.5052                 6.6203                 6.6735
 IR Inten    --      7.0068                 9.0416                 8.3629

                     40                     41                     42
                      A                      A                      A
 Frequencies --   3219.3874              3791.2156              3795.1514
 Red. masses --      1.0916                 1.0673                 1.0657
 Frc consts  --      6.6661                 9.0384                 9.0439
 IR Inten    --      0.7615                13.3093                73.9256

 - Thermochemistry -
 -------------------
 Temperature   298.150 Kelvin.  Pressure   1.00000 Atm.
 Atom     1 has atomic number  6 and mass  12.00000

 Molecular mass:   156.01494 amu.
 Principal axes and moments of inertia in atomic units:
                           1         2         3
     Eigenvalues --   847.053802724.932273571.98583
           X            0.89937  -0.43711   0.00805
           Y            0.42037   0.85957  -0.29056
           Z            0.12009   0.26470   0.95682
 This molecule is an asymmetric top.
 Rotational symmetry number  1.
 Warning -- assumption of classical behavior for rotation
           may cause significant error
 Rotational temperatures (Kelvin)      0.10225     0.03179     0.02425
 Rotational constants (GHZ):           2.13061     0.66231     0.50525
 Zero-point vibrational energy     302279.5 (Joules/Mol)
                                   72.24653 (Kcal/Mol)
 Warning -- explicit consideration of  13 degrees of freedom as
           vibrations may cause significant error
 Vibrational temperatures:     76.21   193.70   194.11   284.21   401.11
          (Kelvin)            490.37   573.07   576.96   611.31   668.09
                              689.55   795.42   804.80   959.93   980.74
                             1031.98  1150.84  1161.67  1319.48  1342.99
                             1349.40  1438.05  1441.22  1458.72  1590.76
                             1610.33  1645.64  1745.58  1891.25  1946.52
                             1969.42  1983.84  2087.83  2187.10  2318.44
                             2366.17  4584.43  4615.37  4628.06  4631.98
                             5454.71  5460.38

 Zero-point correction=                           0.115132 (Hartree/Particle)
 Thermal correction to Energy=                    0.124184
 Thermal correction to Enthalpy=                  0.125128
 Thermal correction to Gibbs Free Energy=         0.080188
 Sum of electronic and zero-point Energies=           -867.776459
 Sum of electronic and thermal Energies=              -867.767407
 Sum of electronic and thermal Enthalpies=            -867.766463
 Sum of electronic and thermal Free Energies=         -867.811403

                     E (Thermal)             CV                S
                      KCal/Mol        Cal/Mol-Kelvin    Cal/Mol-Kelvin
 Total                   77.926             34.235             94.583
 Electronic               0.000              0.000              0.000
 Translational            0.889              2.981             41.044
 Rotational               0.889              2.981             30.490
 Vibrational             76.149             28.273             23.050
 Vibration     1          0.596              1.976              4.703
 Vibration     2          0.613              1.919              2.879
 Vibration     3          0.613              1.918              2.875
 Vibration     4          0.637              1.843              2.156
 Vibration     5          0.679              1.713              1.541
 Vibration     6          0.720              1.594              1.208
 Vibration     7          0.765              1.474              0.969
 Vibration     8          0.767              1.468              0.959
 Vibration     9          0.787              1.416              0.876
 Vibration    10          0.822              1.329              0.754
 Vibration    11          0.836              1.296              0.712
 Vibration    12          0.908              1.133              0.538
 Vibration    13          0.915              1.119              0.525

 Optimization completed.
    -- Stationary point found.
 Normal termination of Gaussian 16 at Fri Sep 15 03:44:38 2023.
