 Gaussian 16, Revision B.01,
 Gaussian 16:  EM64L-G16RevB.01 20-Dec-2017

 ----------------------------------------------------------------
 # opt freq b3lyp/6-31+g(d) nosymm empiricaldispersion=gd3 volume
 ----------------------------------------------------------------

 -------------------
 Title Card Required
 -------------------
 Symbolic Z-matrix:
 Charge =  0 Multiplicity = 1

 SCF Done:  E(RB3LYP) =  -351.352943315     A.U. after   13 cycles
 SCF Done:  E(RB3LYP) =  -351.353074687     A.U. after   11 cycles
 SCF Done:  E(RB3LYP) =  -351.352616599     A.U. after   11 cycles
 SCF Done:  E(RB3LYP) =  -351.353080677     A.U. after   11 cycles
 SCF Done:  E(RB3LYP) =  -351.353093561     A.U. after   10 cycles
 SCF Done:  E(RB3LYP) =  -351.353093398     A.U. after    9 cycles
 SCF Done:  E(RB3LYP) =  -351.353093648     A.U. after    8 cycles
 Optimization completed.
    -- Stationary point found.
 Normal termination of Gaussian 16 at Thu Sep 14 11:58:28 2023.

 ---------------------------------------------------------------------
 #N Geom=AllCheck Guess=TCheck SCRF=Check GenChk RB3LYP/6-31+G(d) Freq
 ---------------------------------------------------------------------

 Structure from the checkpoint file:  "MOLECULE_16.chk"
 -------------------
 Title Card Required
 -------------------
 Charge =  0 Multiplicity = 1

                          Input orientation:
 ---------------------------------------------------------------------
 Center     Atomic      Atomic             Coordinates (Angstroms)
 Number     Number       Type             X           Y           Z
 ---------------------------------------------------------------------
      1          6           0       -1.786688   -0.986024    0.849186
      2          6           0       -0.496321   -1.113226   -0.000303
      3          6           0       -0.168440    0.184765   -0.776034
      4          6           0       -0.640558    1.422619   -0.001240
      5          6           0       -2.182947    1.424660    0.144412
      6          6           0       -2.768505   -0.007827    0.187256
      7          1           0        0.339748   -1.376672    0.662090
      8          1           0        0.908049    0.238784   -0.980877
      9          1           0       -0.169760    1.418542    0.992408
     10          1           0       -2.462386    1.968906    1.056268
     11          1           0       -2.982986   -0.363140   -0.829012
     12          1           0       -2.635063    1.972165   -0.692885
     13          1           0       -0.305822    2.343363   -0.495071
     14          1           0       -0.667736    0.167891   -1.755080
     15          1           0       -0.607008   -1.942641   -0.710446
     16          1           0       -3.728840   -0.009115    0.719694
     17          6           0       -2.421445   -2.366873    1.148660
     18          1           0       -3.241994   -2.236412    1.868289
     19          1           0       -1.675231   -3.006264    1.642132
     20          6           0       -2.935386   -3.062999   -0.034163
     21          6           0       -3.355238   -3.626027   -1.020008
     22          1           0       -3.730143   -4.128282   -1.883884
     23          1           0       -1.516778   -0.569574    1.831362
 ---------------------------------------------------------------------

 SCF Done:  E(RB3LYP) =  -351.353093648     A.U. after    1 cycles

 Alpha  occ. eigenvalues --  -10.21211 -10.19721 -10.19429 -10.18405 -10.18218
 Alpha  occ. eigenvalues --  -10.18148 -10.18116 -10.18070 -10.17989  -0.83996
 Alpha  occ. eigenvalues --   -0.78953  -0.73734  -0.73661  -0.68749  -0.61475
 Alpha  occ. eigenvalues --   -0.60404  -0.54132  -0.51879  -0.49023  -0.47303
 Alpha  occ. eigenvalues --   -0.45687  -0.44125  -0.42652  -0.40206  -0.37837
 Alpha  occ. eigenvalues --   -0.37111  -0.35862  -0.35503  -0.35150  -0.30844
 Alpha  occ. eigenvalues --   -0.30186  -0.30051  -0.26892  -0.26794
 Alpha virt. eigenvalues --   -0.00083   0.01184   0.01768   0.01901   0.03361
 Alpha virt. eigenvalues --    0.03451   0.03689   0.04605   0.04882   0.05669
 Alpha virt. eigenvalues --    0.06079   0.06517   0.07444   0.08456   0.09416

 Mulliken charges:
               1
     1  C    0.123310
     2  C   -0.425193
     3  C   -0.462623
     4  C   -0.389150
     5  C   -0.510096
     6  C   -0.426431
     7  H    0.196298
     8  H    0.193901
     9  H    0.199248
    10  H    0.197486
    11  H    0.225776
    12  H    0.198266
    13  H    0.194216
    14  H    0.204136
    15  H    0.216397
    16  H    0.193909
    17  C   -1.167899
    18  H    0.229606
    19  H    0.230762
    20  C    0.995055
    21  C   -0.650546
    22  H    0.239023
    23  H    0.194548
 Sum of Mulliken charges =   0.00000

 Dipole moment (field-independent basis, Debye):
    X=              0.3494    Y=              0.5755    Z=              0.4120  Tot=              0.7894
 Quadrupole moment (field-independent basis, Debye-Ang):
   XX=            -60.0541   YY=            -60.8285   ZZ=            -54.3703
   XY=             -1.5318   XZ=              0.4437   YZ=              0.6882

  Exact polarizability:  93.875   9.566 106.661   3.919   7.652  94.929
 Approx polarizability: 125.733   8.187 130.897  13.109  17.438 150.416

                      1                      2                      3
                      A                      A                      A
 Frequencies --     72.6603                85.9979               142.6273
 Red. masses --      2.9140                 3.1480                 2.2206
 Frc consts  --      0.0091                 0.0137                 0.0266
 IR Inten    --      0.0463                 0.0232                 0.0495

                      4                      5                      6
                      A                      A                      A
 Frequencies --    193.4789               265.6170               297.0698
 Red. masses --      2.3211                 1.7588                 2.7449
 Frc consts  --      0.0512                 0.0731                 0.1427
 IR Inten    --      0.3599                 0.0718                 0.4752

                      7                      8                      9
                      A                      A                      A
 Frequencies --    363.5325               366.6030               413.3076
 Red. masses --      3.1823                 3.2688                 2.2236
 Frc consts  --      0.2478                 0.2588                 0.2238
 IR Inten    --      3.5817                 3.9460                 1.2096

                     10                     11                     12
                      A                      A                      A
 Frequencies --    477.6704               549.4807               612.5500
 Red. masses --      4.0717                 2.0246                 1.2305
 Frc consts  --      0.5474                 0.3602                 0.2720
 IR Inten    --      0.4960                 0.3747                60.7264

                     13                     14                     15
                      A                      A                      A
 Frequencies --    626.5182               655.9229               761.7978
 Red. masses --      1.3671                 2.7956                 1.6804
 Frc consts  --      0.3162                 0.7087                 0.5746
 IR Inten    --     49.5251                15.8235                 1.5102

                     16                     17                     18
                      A                      A                      A
 Frequencies --    788.0512               852.8581               863.5383
 Red. masses --      1.5853                 2.6694                 2.1913
 Frc consts  --      0.5801                 1.1440                 0.9627
 IR Inten    --      1.0087                 0.6362                 0.6739

                     19                     20                     21
                      A                      A                      A
 Frequencies --    878.1197               918.4912               952.0149
 Red. masses --      1.9713                 1.6409                 2.4216
 Frc consts  --      0.8956                 0.8156                 1.2931
 IR Inten    --      1.2164                 0.3438                 0.4400

                     22                     23                     24
                      A                      A                      A
 Frequencies --    962.6024               972.0790              1052.5957
 Red. masses --      1.7510                 2.1633                 2.0790
 Frc consts  --      0.9559                 1.2044                 1.3572
 IR Inten    --      0.6500                 1.0176                 0.2373

                     25                     26                     27
                      A                      A                      A
 Frequencies --   1083.3434              1092.9369              1106.2043
 Red. masses --      2.0853                 1.8841                 3.5507
 Frc consts  --      1.4420                 1.3260                 2.5600
 IR Inten    --      0.5663                 0.0648                 0.0161

                     28                     29                     30
                      A                      A                      A
 Frequencies --   1140.7001              1163.0471              1208.3733
 Red. masses --      1.0473                 2.2598                 1.1797
 Frc consts  --      0.8029                 1.8010                 1.0149
 IR Inten    --      0.0166                 1.2692                 0.1858

                     31                     32                     33
                      A                      A                      A
 Frequencies --   1264.2599              1270.2384              1286.3532
 Red. masses --      1.2341                 1.2348                 1.3069
 Frc consts  --      1.1622                 1.1739                 1.2742
 IR Inten    --      0.8756                 0.2319                 0.1027

                     34                     35                     36
                      A                      A                      A
 Frequencies --   1310.4921              1329.7693              1346.6206
 Red. masses --      1.1461                 1.2599                 1.3123
 Frc consts  --      1.1597                 1.3126                 1.4021
 IR Inten    --      1.2613                 0.6822                 0.5699

                     37                     38                     39
                      A                      A                      A
 Frequencies --   1368.1790              1379.5479              1382.2627
 Red. masses --      1.4050                 1.3781                 1.3489
 Frc consts  --      1.5496                 1.5452                 1.5185
 IR Inten    --      4.0272                 3.4683                 2.0626

                     40                     41                     42
                      A                      A                      A
 Frequencies --   1392.4073              1404.1699              1422.8436
 Red. masses --      1.3462                 1.3776                 1.4474
 Frc consts  --      1.5378                 1.6003                 1.7265
 IR Inten    --      1.0541                 1.2194                 4.9626

                     43                     44                     45
                      A                      A                      A
 Frequencies --   1494.5029              1509.6186              1511.7803
 Red. masses --      1.0864                 1.0754                 1.0791
 Frc consts  --      1.4297                 1.4439                 1.4531
 IR Inten    --      8.8429                 0.1846                 1.0177

                     46                     47                     48
                      A                      A                      A
 Frequencies --   1522.8192              1528.6873              1542.0848
 Red. masses --      1.0929                 1.0848                 1.0920
 Frc consts  --      1.4932                 1.4937                 1.5300
 IR Inten    --      4.5494                 8.9436                 1.8823

                     49                     50                     51
                      A                      A                      A
 Frequencies --   2217.2535              3002.9904              3019.6759
 Red. masses --      6.0072                 1.0799                 1.0678
 Frc consts  --     17.4002                 5.7375                 5.7367
 IR Inten    --      7.7065                10.7761                18.1429

                     52                     53                     54
                      A                      A                      A
 Frequencies --   3023.2433              3025.1755              3029.7108
 Red. masses --      1.0624                 1.0615                 1.0641
 Frc consts  --      5.7212                 5.7236                 5.7548
 IR Inten    --     11.7023                40.2288                54.6005

                     55                     56                     57
                      A                      A                      A
 Frequencies --   3031.7985              3041.2162              3052.9649
 Red. masses --      1.0654                 1.0626                 1.1019
 Frc consts  --      5.7698                 5.7906                 6.0513
 IR Inten    --     50.2303                36.5267                 7.9894

                     58                     59                     60
                      A                      A                      A
 Frequencies --   3054.6610              3064.4061              3070.3192
 Red. masses --      1.1006                 1.0959                 1.0985
 Frc consts  --      6.0508                 6.0631                 6.1015
 IR Inten    --     23.1470                40.0087                36.4400

                     61                     62                     63
                      A                      A                      A
 Frequencies --   3077.1486              3085.0230              3482.0116
 Red. masses --      1.1021                 1.1040                 1.1586
 Frc consts  --      6.1485                 6.1907                 8.2765
 IR Inten    --     56.7111               117.3838                59.9375

 - Thermochemistry -
 -------------------
 Temperature   298.150 Kelvin.  Pressure   1.00000 Atm.
 Atom     1 has atomic number  6 and mass  12.00000

 Molecular mass:   122.10955 amu.
 Principal axes and moments of inertia in atomic units:
                           1         2         3
     Eigenvalues --   593.020311803.374861947.11758
           X            0.42845   0.86172   0.27178
           Y            0.90350  -0.40493  -0.14044
           Z            0.01097  -0.30572   0.95206
 This molecule is an asymmetric top.
 Rotational symmetry number  1.
 Warning -- assumption of classical behavior for rotation
           may cause significant error
 Rotational temperatures (Kelvin)      0.14606     0.04803     0.04448
 Rotational constants (GHZ):           3.04330     1.00076     0.92688
 Zero-point vibrational energy     547076.4 (Joules/Mol)
                                  130.75439 (Kcal/Mol)
 Warning -- explicit consideration of  12 degrees of freedom as
           vibrations may cause significant error
 Vibrational temperatures:    104.54   123.73   205.21   278.37   382.16
          (Kelvin)            427.42   523.04   527.46   594.66   687.26
                              790.58   881.32   901.42   943.73  1096.06
                             1133.83  1227.07  1242.44  1263.42  1321.50
                             1369.74  1384.97  1398.60  1514.45  1558.69
                             1572.49  1591.58  1641.21  1673.37  1738.58
                             1818.99  1827.59  1850.78  1885.51  1913.24
                             1937.49  1968.50  1984.86  1988.77  2003.36
                             2020.29  2047.15  2150.26  2172.00  2175.11
                             2191.00  2199.44  2218.72  3190.13  4320.63
                             4344.64  4349.77  4352.55  4359.08  4362.08
                             4375.63  4392.54  4394.98  4409.00  4417.50
                             4427.33  4438.66  5009.84

 Zero-point correction=                           0.208370 (Hartree/Particle)
 Thermal correction to Energy=                    0.217558
 Thermal correction to Enthalpy=                  0.218502
 Thermal correction to Gibbs Free Energy=         0.174311
 Sum of electronic and zero-point Energies=           -351.144723
 Sum of electronic and thermal Energies=              -351.135536
 Sum of electronic and thermal Enthalpies=            -351.134592
 Sum of electronic and thermal Free Energies=         -351.178783

                     E (Thermal)             CV                S
                      KCal/Mol        Cal/Mol-Kelvin    Cal/Mol-Kelvin
 Total                  136.519             35.530             93.008
 Electronic               0.000              0.000              0.000
 Translational            0.889              2.981             40.313
 Rotational               0.889              2.981             29.122
 Vibrational            134.742             29.569             23.572
 Vibration     1          0.599              1.967              4.080
 Vibration     2          0.601              1.959              3.749
 Vibration     3          0.616              1.911              2.768
 Vibration     4          0.635              1.849              2.194
 Vibration     5          0.671              1.736              1.625
 Vibration     6          0.691              1.679              1.433
 Vibration     7          0.737              1.547              1.107
 Vibration     8          0.740              1.541              1.094
 Vibration     9          0.777              1.441              0.915
 Vibration    10          0.834              1.300              0.716
 Vibration    11          0.905              1.141              0.545
 Vibration    12          0.972              1.005              0.429

 Optimization completed.
    -- Stationary point found.
 Normal termination of Gaussian 16 at Thu Sep 14 12:00:23 2023.
