 Gaussian 16, Revision B.01,
 Gaussian 16:  EM64L-G16RevB.01 20-Dec-2017

 ----------------------------------------------------------------------
 # opt freq b3lyp/6-31+g(d) empiricaldispersion=gd3 scf=maxcycle=1000 v
 olume
 ----------------------------------------------------------------------

 -------------------
 Title Card Required
 -------------------
 Symbolic Z-matrix:
 Charge =  0 Multiplicity = 1

 SCF Done:  E(RB3LYP) =  -461.140553026     A.U. after   15 cycles
 Optimization completed.
    -- Stationary point found.
 Normal termination of Gaussian 16 at Tue Sep 19 06:44:57 2023.

 ---------------------------------------------------------------------
 #N Geom=AllCheck Guess=TCheck SCRF=Check GenChk RB3LYP/6-31+G(d) Freq
 ---------------------------------------------------------------------

 Structure from the checkpoint file:  "molecule33vol.chk"
 -------------------
 Title Card Required
 -------------------
 Charge =  0 Multiplicity = 1

                         Standard orientation:
 ---------------------------------------------------------------------
 Center     Atomic      Atomic             Coordinates (Angstroms)
 Number     Number       Type             X           Y           Z
 ---------------------------------------------------------------------
      1          6           0       -2.104219   -0.232657   -0.000133
      2          6           0       -1.041716   -1.111715   -0.000039
      3          6           0        0.291259   -0.626687    0.000039
      4          6           0        0.527280    0.789309    0.000017
      5          6           0       -0.593795    1.661666    0.000109
      6          6           0       -1.880271    1.169026   -0.000077
      7          1           0        1.239331   -2.576510    0.000098
      8          1           0       -1.236092   -2.180607    0.000150
      9          6           0        1.413536   -1.502785    0.000055
     10          6           0        1.865368    1.269644   -0.000033
     11          1           0       -0.426365    2.736404    0.000268
     12          1           0       -2.729510    1.850492   -0.000038
     13          6           0        2.930568    0.394725   -0.000047
     14          6           0        2.699058   -1.005348   -0.000002
     15          1           0        2.035531    2.344421   -0.000064
     16          1           0        3.949397    0.773033   -0.000054
     17          1           0        3.544586   -1.688687   -0.000002
     18          8           0       -3.373839   -0.756049   -0.000006
     19          1           0       -4.028586   -0.041219    0.000374
 ---------------------------------------------------------------------

 SCF Done:  E(RB3LYP) =  -461.140553026     A.U. after    1 cycles

 The electronic state is 1-A.
 Alpha  occ. eigenvalues --  -19.19516 -10.26178 -10.20856 -10.20712 -10.20648
 Alpha  occ. eigenvalues --  -10.20436 -10.19896 -10.19833 -10.19620 -10.19601
 Alpha  occ. eigenvalues --  -10.19230  -1.07136  -0.87874  -0.82517  -0.78036
 Alpha  occ. eigenvalues --   -0.74493  -0.72795  -0.63701  -0.62833  -0.60419
 Alpha  occ. eigenvalues --   -0.56090  -0.52237  -0.50721  -0.47864  -0.45681
 Alpha  occ. eigenvalues --   -0.43472  -0.43111  -0.42145  -0.41994  -0.40319
 Alpha  occ. eigenvalues --   -0.37899  -0.37041  -0.35472  -0.33859  -0.31647
 Alpha  occ. eigenvalues --   -0.28794  -0.24261  -0.21467
 Alpha virt. eigenvalues --   -0.04817  -0.01473  -0.00811   0.00855   0.00884
 Alpha virt. eigenvalues --    0.01519   0.02700   0.03818   0.05233   0.05596
 Alpha virt. eigenvalues --    0.05815   0.06378   0.06941   0.07596   0.09262

 Mulliken charges:
               1
     1  C    0.270899
     2  C   -0.111851
     3  C   -0.324373
     4  C   -0.451574
     5  C   -0.044584
     6  C   -0.056175
     7  H    0.182652
     8  H    0.192865
     9  C    0.234183
    10  C    0.142229
    11  H    0.185752
    12  H    0.167758
    13  C   -0.369922
    14  C   -0.351703
    15  H    0.180422
    16  H    0.179005
    17  H    0.179539
    18  O   -0.685141
    19  H    0.480018
 Sum of Mulliken charges =   0.00000

 Dipole moment (field-independent basis, Debye):
    X=             -0.5204    Y=              1.5480    Z=              0.0009  Tot=              1.6331
 Quadrupole moment (field-independent basis, Debye-Ang):
   XX=            -54.3010   YY=            -58.8514   ZZ=            -70.0635
   XY=             -6.2211   XZ=             -0.0031   YZ=              0.0001

  Exact polarizability: 182.011  -6.072 124.351   0.000   0.000  63.046
 Approx polarizability: 299.871  -9.500 215.409   0.003   0.001  93.548

                      1                      2                      3
                      A                      A                      A
 Frequencies --    122.7520               181.7974               291.9734
 Red. masses --      5.3422                 3.6419                 2.2003
 Frc consts  --      0.0474                 0.0709                 0.1105
 IR Inten    --      0.9161                 4.0421                61.1542

                      4                      5                      6
                      A                      A                      A
 Frequencies --    292.3719               300.6874               408.3014
 Red. masses --      4.9554                 1.5204                 3.2572
 Frc consts  --      0.2496                 0.0810                 0.3199
 IR Inten    --      4.7286                53.5118                 0.2951

                      7                      8                      9
                      A                      A                      A
 Frequencies --    429.6397               470.5538               481.1110
 Red. masses --      6.1663                 4.6838                 2.4971
 Frc consts  --      0.6706                 0.6110                 0.3406
 IR Inten    --      4.8898                 0.8223                18.2820

                     10                     11                     12
                      A                      A                      A
 Frequencies --    532.3617               539.6199               630.4906
 Red. masses --      6.1996                 3.4207                 3.0668
 Frc consts  --      1.0352                 0.5869                 0.7183
 IR Inten    --      0.1116                 0.4081                 1.3286

                     13                     14                     15
                      A                      A                      A
 Frequencies --    635.2109               724.7383               749.4079
 Red. masses --      6.7262                 6.4945                 3.3778
 Frc consts  --      1.5990                 2.0098                 1.1177
 IR Inten    --      7.6314                 6.8123                 1.3884

                     16                     17                     18
                      A                      A                      A
 Frequencies --    756.8019               780.6161               808.6141
 Red. masses --      1.3135                 4.8173                 1.4309
 Frc consts  --      0.4433                 1.7295                 0.5512
 IR Inten    --     30.4474                 0.1672                52.2044

                     19                     20                     21
                      A                      A                      A
 Frequencies --    860.0140               889.3180               915.2394
 Red. masses --      1.3975                 1.5564                 5.1348
 Frc consts  --      0.6090                 0.7252                 2.5342
 IR Inten    --     23.2733                17.3387                20.5369

                     22                     23                     24
                      A                      A                      A
 Frequencies --    945.5812               966.6629               977.9056
 Red. masses --      1.2941                 1.3773                 3.8975
 Frc consts  --      0.6817                 0.7583                 2.1960
 IR Inten    --      0.0311                 4.6558                23.5172

                     25                     26                     27
                      A                      A                      A
 Frequencies --    991.6879              1048.6475              1155.5703
 Red. masses --      1.2823                 2.3333                 1.7926
 Frc consts  --      0.7430                 1.5117                 1.4103
 IR Inten    --      0.0288                 1.6206                16.3685

                     28                     29                     30
                      A                      A                      A
 Frequencies --   1183.1976              1191.3999              1203.5012
 Red. masses --      1.3058                 1.2693                 1.2045
 Frc consts  --      1.0770                 1.0615                 1.0279
 IR Inten    --     24.0206                41.3879                71.7763

                     31                     32                     33
                      A                      A                      A
 Frequencies --   1217.3690              1255.5326              1297.3413
 Red. masses --      1.3987                 2.3361                 1.8641
 Frc consts  --      1.2213                 2.1697                 1.8485
 IR Inten    --     19.9129                37.0810                35.8237

                     34                     35                     36
                      A                      A                      A
 Frequencies --   1305.7053              1409.9694              1416.7608
 Red. masses --      2.2441                 5.2454                 2.0026
 Frc consts  --      2.2542                 6.1439                 2.3683
 IR Inten    --    115.2625                 1.0039                22.3311

                     37                     38                     39
                      A                      A                      A
 Frequencies --   1423.6054              1492.8161              1516.5468
 Red. masses --      3.0460                 2.3421                 2.3629
 Frc consts  --      3.6372                 3.0751                 3.2019
 IR Inten    --      0.9314                20.5526                20.0408

                     40                     41                     42
                      A                      A                      A
 Frequencies --   1561.1977              1623.2321              1658.8226
 Red. masses --      3.4217                 6.6785                 5.1134
 Frc consts  --      4.9137                10.3679                 8.2901
 IR Inten    --     65.5701                13.7046                12.5355

                     43                     44                     45
                      A                      A                      A
 Frequencies --   1687.3816              3162.2303              3170.7691
 Red. masses --      6.0526                 1.0877                 1.0863
 Frc consts  --     10.1536                 6.4084                 6.4347
 IR Inten    --     90.7639                14.6568                 5.2061

                     46                     47                     48
                      A                      A                      A
 Frequencies --   3175.9655              3186.9721              3190.4332
 Red. masses --      1.0882                 1.0939                 1.0933
 Frc consts  --      6.4670                 6.5460                 6.5566
 IR Inten    --      0.3097                15.1290                37.7174

                     49                     50                     51
                      A                      A                      A
 Frequencies --   3199.9539              3203.9564              3756.8500
 Red. masses --      1.0911                 1.0967                 1.0665
 Frc consts  --      6.5826                 6.6328                 8.8683
 IR Inten    --     12.4734                23.5932                68.2568

 - Thermochemistry -
 -------------------
 Temperature   298.150 Kelvin.  Pressure   1.00000 Atm.
 Atom     1 has atomic number  6 and mass  12.00000

 Molecular mass:   144.05751 amu.
 Principal axes and moments of inertia in atomic units:
                           1         2         3
     Eigenvalues --   636.457182196.734152833.19133
           X            0.99994  -0.01062   0.00000
           Y            0.01062   0.99994   0.00000
           Z            0.00000   0.00000   1.00000
 This molecule is an asymmetric top.
 Rotational symmetry number  1.
 Warning -- assumption of classical behavior for rotation
           may cause significant error
 Rotational temperatures (Kelvin)      0.13609     0.03943     0.03057
 Rotational constants (GHZ):           2.83561     0.82156     0.63700
 Zero-point vibrational energy     397035.7 (Joules/Mol)
                                   94.89381 (Kcal/Mol)
 Warning -- explicit consideration of  11 degrees of freedom as
           vibrations may cause significant error
 Vibrational temperatures:    176.61   261.57   420.08   420.66   432.62
          (Kelvin)            587.45   618.16   677.02   692.21   765.95
                              776.39   907.14   913.93  1042.74  1078.23
                             1088.87  1123.13  1163.42  1237.37  1279.53
                             1316.83  1360.48  1390.81  1406.99  1426.82
                             1508.77  1662.61  1702.36  1714.16  1731.57
                             1751.52  1806.43  1866.58  1878.62  2028.63
                             2038.40  2048.25  2147.83  2181.97  2246.22
                             2335.47  2386.68  2427.77  4549.74  4562.03
                             4569.51  4585.34  4590.32  4604.02  4609.78
                             5405.27

 Zero-point correction=                           0.151223 (Hartree/Particle)
 Thermal correction to Energy=                    0.159348
 Thermal correction to Enthalpy=                  0.160293
 Thermal correction to Gibbs Free Energy=         0.118486
 Sum of electronic and zero-point Energies=           -460.989330
 Sum of electronic and thermal Energies=              -460.981205
 Sum of electronic and thermal Enthalpies=            -460.980260
 Sum of electronic and thermal Free Energies=         -461.022067

                     E (Thermal)             CV                S
                      KCal/Mol        Cal/Mol-Kelvin    Cal/Mol-Kelvin
 Total                   99.993             33.787             87.990
 Electronic               0.000              0.000              0.000
 Translational            0.889              2.981             40.806
 Rotational               0.889              2.981             29.761
 Vibrational             98.215             27.825             17.423
 Vibration     1          0.610              1.930              3.057
 Vibration     2          0.630              1.865              2.310
 Vibration     3          0.687              1.689              1.462
 Vibration     4          0.688              1.688              1.460
 Vibration     5          0.693              1.672              1.413
 Vibration     6          0.773              1.452              0.933
 Vibration     7          0.791              1.406              0.860
 Vibration     8          0.828              1.315              0.736
 Vibration     9          0.837              1.292              0.707
 Vibration    10          0.887              1.178              0.582
 Vibration    11          0.895              1.162              0.566

 Optimization completed.
    -- Stationary point found.
 Normal termination of Gaussian 16 at Tue Sep 19 06:46:44 2023.
