 Gaussian 16, Revision B.01,
 Gaussian 16:  EM64L-G16RevB.01 20-Dec-2017

 ----------------------------------------------------------------
 # opt freq b3lyp/6-31+g(d) nosymm empiricaldispersion=gd3 volume
 ----------------------------------------------------------------

 -----------
 molecule_25
 -----------
 Symbolic Z-matrix:
 Charge =  0 Multiplicity = 1

 SCF Done:  E(RB3LYP) =  -490.530885553     A.U. after   14 cycles
 SCF Done:  E(RB3LYP) =  -490.532079225     A.U. after   12 cycles
 SCF Done:  E(RB3LYP) =  -490.531846087     A.U. after   12 cycles
 SCF Done:  E(RB3LYP) =  -490.532277640     A.U. after   11 cycles
 SCF Done:  E(RB3LYP) =  -490.532301674     A.U. after   11 cycles
 SCF Done:  E(RB3LYP) =  -490.532332088     A.U. after   11 cycles
 SCF Done:  E(RB3LYP) =  -490.532342198     A.U. after   10 cycles
 SCF Done:  E(RB3LYP) =  -490.532348554     A.U. after   10 cycles
 SCF Done:  E(RB3LYP) =  -490.532353884     A.U. after   10 cycles
 SCF Done:  E(RB3LYP) =  -490.532360969     A.U. after   11 cycles
 SCF Done:  E(RB3LYP) =  -490.532366568     A.U. after   10 cycles
 SCF Done:  E(RB3LYP) =  -490.532367782     A.U. after   10 cycles
 SCF Done:  E(RB3LYP) =  -490.532367862     A.U. after    8 cycles
 SCF Done:  E(RB3LYP) =  -490.532367889     A.U. after    7 cycles
 Optimization completed.
    -- Stationary point found.
 Normal termination of Gaussian 16 at Fri Sep 15 03:50:57 2023.

 ---------------------------------------------------------------------
 #N Geom=AllCheck Guess=TCheck SCRF=Check GenChk RB3LYP/6-31+G(d) Freq
 ---------------------------------------------------------------------

 Structure from the checkpoint file:  "MOLECULE_25.chk"
 -----------
 molecule_25
 -----------
 Charge =  0 Multiplicity = 1

                          Input orientation:
 ---------------------------------------------------------------------
 Center     Atomic      Atomic             Coordinates (Angstroms)
 Number     Number       Type             X           Y           Z
 ---------------------------------------------------------------------
      1          6           0        1.459185   -1.373011    0.702937
      2          6           0        1.584183   -0.059367    0.378477
      3          6           0        0.831340    1.019301    1.161536
      4          6           0       -0.603446    1.271794    0.648002
      5          6           0       -0.676813    1.782553   -0.797315
      6          1           0       -1.187996    0.343294    0.726716
      7          5           0        2.461511    0.473028   -0.805017
      8          8           0        2.812123   -0.333424   -1.873022
      9          1           0        3.360623    0.087401   -2.550558
     10          8           0        2.837397    1.804580   -0.760030
     11          1           0        3.342581    2.129124   -1.518568
     12          1           0        0.784207    0.765679    2.227251
     13          6           0       -2.112694    2.071865   -1.250100
     14          1           0       -2.733889    1.168434   -1.191020
     15          1           0       -2.580560    2.836703   -0.616235
     16          1           0       -2.144477    2.431489   -2.286116
     17          6           0        2.184072   -2.513092    0.020094
     18          1           0        2.976811   -2.190126   -0.652411
     19          1           0        2.611816   -3.187240    0.775886
     20          1           0        1.473707   -3.115395   -0.565471
     21          1           0       -0.065334    2.690986   -0.890540
     22          1           0       -0.228456    1.038317   -1.470093
     23          1           0       -1.090599    2.004400    1.309529
     24          1           0        1.388065    1.960883    1.102948
     25          6           0        0.573643   -1.878769    1.824439
     26          1           0       -0.088732   -1.125197    2.252310
     27          1           0       -0.051479   -2.705991    1.460245
     28          1           0        1.188485   -2.293281    2.637095
 ---------------------------------------------------------------------

 SCF Done:  E(RB3LYP) =  -490.532367889     A.U. after    1 cycles

 Alpha  occ. eigenvalues --  -19.17275 -19.17146 -10.19919 -10.17802 -10.17399
 Alpha  occ. eigenvalues --  -10.17378 -10.17071 -10.17044 -10.17001 -10.16122
 Alpha  occ. eigenvalues --   -6.79208  -1.04673  -1.01075  -0.81186  -0.78165
 Alpha  occ. eigenvalues --   -0.72968  -0.68562  -0.66995  -0.61337  -0.58378
 Alpha  occ. eigenvalues --   -0.56892  -0.54786  -0.49060  -0.46247  -0.45268
 Alpha  occ. eigenvalues --   -0.43556  -0.43031  -0.41798  -0.41373  -0.39885
 Alpha  occ. eigenvalues --   -0.39107  -0.38128  -0.37920  -0.36398  -0.36090
 Alpha  occ. eigenvalues --   -0.34762  -0.33713  -0.33371  -0.32608  -0.32477
 Alpha  occ. eigenvalues --   -0.31180  -0.29419  -0.23182
 Alpha virt. eigenvalues --   -0.02788  -0.01471   0.00988   0.01596   0.01996
 Alpha virt. eigenvalues --    0.03372   0.03463   0.04349   0.04944   0.05155
 Alpha virt. eigenvalues --    0.06320   0.06696   0.07244   0.08273   0.08347

 Mulliken charges:
               1
     1  C    0.587634
     2  C   -0.271669
     3  C   -0.459407
     4  C   -0.547786
     5  C    0.004210
     6  H    0.191886
     7  B    0.922755
     8  O   -0.784371
     9  H    0.484444
    10  O   -0.752140
    11  H    0.481043
    12  H    0.189605
    13  C   -0.951547
    14  H    0.199293
    15  H    0.197947
    16  H    0.194084
    17  C   -0.947362
    18  H    0.238943
    19  H    0.199553
    20  H    0.215022
    21  H    0.205086
    22  H    0.202040
    23  H    0.187045
    24  H    0.225813
    25  C   -0.848836
    26  H    0.206656
    27  H    0.212789
    28  H    0.217271
 Sum of Mulliken charges =   0.00000

 Dipole moment (field-independent basis, Debye):
    X=              1.2622    Y=              0.3631    Z=             -1.5129  Tot=              2.0035
 Quadrupole moment (field-independent basis, Debye-Ang):
   XX=            -64.2944   YY=            -70.2724   ZZ=            -64.9800
   XY=              3.9543   XZ=             -9.2509   YZ=             -5.6647

  Exact polarizability: 110.074  -5.235 134.667  -8.357 -12.585 109.823
 Approx polarizability: 141.429   5.871 187.633 -11.264 -12.425 149.594

                      1                      2                      3
                      A                      A                      A
 Frequencies --     39.2348                43.9764                80.9632
 Red. masses --      6.3095                 3.0549                 2.6972
 Frc consts  --      0.0057                 0.0035                 0.0104
 IR Inten    --      0.1320                 0.0224                 0.6712

                      4                      5                      6
                      A                      A                      A
 Frequencies --     90.9963               105.7002               109.0937
 Red. masses --      1.7837                 1.3589                 1.5346
 Frc consts  --      0.0087                 0.0089                 0.0108
 IR Inten    --      0.1526                 1.1737                 1.6476

                      7                      8                      9
                      A                      A                      A
 Frequencies --    134.8590               184.5396               221.7263
 Red. masses --      1.4951                 2.5148                 3.2098
 Frc consts  --      0.0160                 0.0505                 0.0930
 IR Inten    --      1.1384                 1.2689                 2.1347

                     10                     11                     12
                      A                      A                      A
 Frequencies --    254.2562               258.0472               333.5064
 Red. masses --      1.3565                 1.9505                 3.2758
 Frc consts  --      0.0517                 0.0765                 0.2147
 IR Inten    --      1.3147                 1.9788                 6.8311

                     13                     14                     15
                      A                      A                      A
 Frequencies --    358.4533               370.8258               385.6436
 Red. masses --      3.1481                 3.7824                 1.0858
 Frc consts  --      0.2383                 0.3064                 0.0951
 IR Inten    --      6.8219                 7.7371                 1.7703

                     16                     17                     18
                      A                      A                      A
 Frequencies --    419.8691               461.2149               486.6171
 Red. masses --      2.4961                 2.5279                 2.3843
 Frc consts  --      0.2593                 0.3168                 0.3327
 IR Inten    --      3.2277                 4.7759                 1.6507

                     19                     20                     21
                      A                      A                      A
 Frequencies --    506.9195               540.9053               589.0351
 Red. masses --      1.6058                 2.7531                 2.5003
 Frc consts  --      0.2431                 0.4746                 0.5111
 IR Inten    --     89.7392                38.9928               128.0097

                     22                     23                     24
                      A                      A                      A
 Frequencies --    641.9199               719.1138               772.5817
 Red. masses --      3.3800                 3.1479                 1.2911
 Frc consts  --      0.8206                 0.9591                 0.4540
 IR Inten    --     21.3228                24.3042                 4.2989

                     25                     26                     27
                      A                      A                      A
 Frequencies --    822.4223               875.8956               888.6340
 Red. masses --      2.0621                 2.7075                 1.5184
 Frc consts  --      0.8218                 1.2238                 0.7064
 IR Inten    --      0.5609                 1.7320                 3.4126

                     28                     29                     30
                      A                      A                      A
 Frequencies --    926.5062               969.9814               976.9903
 Red. masses --      1.1150                 1.4586                 1.3294
 Frc consts  --      0.5639                 0.8086                 0.7476
 IR Inten    --    135.9765                 2.0730                 8.8463

                     31                     32                     33
                      A                      A                      A
 Frequencies --    980.3811               991.1750              1012.3571
 Red. masses --      1.8914                 1.5556                 2.2156
 Frc consts  --      1.0711                 0.9004                 1.3379
 IR Inten    --     16.2311                31.7267               106.5334

                     34                     35                     36
                      A                      A                      A
 Frequencies --   1057.1614              1082.5907              1110.4690
 Red. masses --      2.3704                 1.7895                 1.6782
 Frc consts  --      1.5608                 1.2357                 1.2193
 IR Inten    --     13.4340                 6.5091                 0.0328

                     37                     38                     39
                      A                      A                      A
 Frequencies --   1124.0402              1134.9145              1168.6411
 Red. masses --      1.9264                 2.0598                 1.8346
 Frc consts  --      1.4340                 1.5631                 1.4762
 IR Inten    --      6.1002                 2.4036                11.2849

                     40                     41                     42
                      A                      A                      A
 Frequencies --   1235.1624              1263.4466              1281.8294
 Red. masses --      2.7340                 1.4653                 1.3170
 Frc consts  --      2.4576                 1.3781                 1.2749
 IR Inten    --      1.9024                21.0753                 5.1562

                     43                     44                     45
                      A                      A                      A
 Frequencies --   1333.3888              1341.3502              1351.0536
 Red. masses --      4.6466                 1.2612                 1.2577
 Frc consts  --      4.8674                 1.3369                 1.3526
 IR Inten    --    285.0621                32.3852                13.2719

                     46                     47                     48
                      A                      A                      A
 Frequencies --   1372.4088              1383.8640              1415.7309
 Red. masses --      2.3021                 1.6092                 1.4894
 Frc consts  --      2.5547                 1.8157                 1.7588
 IR Inten    --    122.1596                60.6893                 3.3178

                     49                     50                     51
                      A                      A                      A
 Frequencies --   1429.5552              1434.2143              1443.4110
 Red. masses --      1.2664                 1.2349                 1.2078
 Frc consts  --      1.5248                 1.4966                 1.4827
 IR Inten    --     13.7513                 2.3912                 8.1706

                     52                     53                     54
                      A                      A                      A
 Frequencies --   1500.3691              1502.6620              1508.6592
 Red. masses --      1.0541                 1.0645                 1.0880
 Frc consts  --      1.3980                 1.4161                 1.4590
 IR Inten    --      4.8074                 5.9660                 5.3827

                     55                     56                     57
                      A                      A                      A
 Frequencies --   1511.5673              1517.7726              1522.5581
 Red. masses --      1.1054                 1.0547                 1.0404
 Frc consts  --      1.4881                 1.4314                 1.4210
 IR Inten    --     18.2715                 2.0262                 7.9930

                     58                     59                     60
                      A                      A                      A
 Frequencies --   1524.3242              1530.4194              1551.5663
 Red. masses --      1.0487                 1.0837                 1.0776
 Frc consts  --      1.4357                 1.4955                 1.5284
 IR Inten    --     17.4876                 5.8664                 1.4984

                     61                     62                     63
                      A                      A                      A
 Frequencies --   1676.3221              3007.2827              3017.5189
 Red. masses --      5.9441                 1.0592                 1.0449
 Frc consts  --      9.8413                 5.6441                 5.6054
 IR Inten    --     84.4532                27.1196                13.7599

                     64                     65                     66
                      A                      A                      A
 Frequencies --   3024.6899              3026.7005              3028.5078
 Red. masses --      1.0456                 1.0584                 1.0373
 Frc consts  --      5.6363                 5.7128                 5.6055
 IR Inten    --     73.2769                57.4850                37.7947

                     67                     68                     69
                      A                      A                      A
 Frequencies --   3035.2791              3052.8829              3056.6401
 Red. masses --      1.0965                 1.0702                 1.0982
 Frc consts  --      5.9517                 5.8765                 6.0453
 IR Inten    --      8.3107                40.8669                19.7588

                     70                     71                     72
                      A                      A                      A
 Frequencies --   3061.6382              3063.9584              3090.8874
 Red. masses --      1.1019                 1.0968                 1.0999
 Frc consts  --      6.0856                 6.0665                 6.1909
 IR Inten    --     37.2985                24.1362                 6.6206

                     73                     74                     75
                      A                      A                      A
 Frequencies --   3094.0199              3094.7338              3158.1139
 Red. masses --      1.1015                 1.1010                 1.0931
 Frc consts  --      6.2128                 6.2125                 6.4232
 IR Inten    --     69.0780                78.5642                23.1293

                     76                     77                     78
                      A                      A                      A
 Frequencies --   3185.0558              3775.1887              3788.0011
 Red. masses --      1.0925                 1.0666                 1.0660
 Frc consts  --      6.5300                 8.9564                 9.0119
 IR Inten    --      6.3911                15.1933                35.8975

 - Thermochemistry -
 -------------------
 Temperature   298.150 Kelvin.  Pressure   1.00000 Atm.
 Atom     1 has atomic number  6 and mass  12.00000

 Molecular mass:   156.13216 amu.
 Principal axes and moments of inertia in atomic units:
                           1         2         3
     Eigenvalues --  1574.495182388.250313186.34450
           X           -0.68800  -0.61119   0.39129
           Y            0.71249  -0.46641   0.52424
           Z           -0.13791   0.63946   0.75635
 This molecule is an asymmetric top.
 Rotational symmetry number  1.
 Warning -- assumption of classical behavior for rotation
           may cause significant error
 Rotational temperatures (Kelvin)      0.05501     0.03627     0.02718
 Rotational constants (GHZ):           1.14623     0.75568     0.56640
 Zero-point vibrational energy     648524.9 (Joules/Mol)
                                  155.00117 (Kcal/Mol)
 Warning -- explicit consideration of  21 degrees of freedom as
           vibrations may cause significant error
 Vibrational temperatures:     56.45    63.27   116.49   130.92   152.08
          (Kelvin)            156.96   194.03   265.51   319.01   365.82
                              371.27   479.84   515.73   533.54   554.86
                              604.10   663.59   700.13   729.34   778.24
                              847.49   923.58  1034.64  1111.57  1183.28
                             1260.22  1278.55  1333.04  1395.59  1405.67
                             1410.55  1426.08  1456.56  1521.02  1557.61
                             1597.72  1617.24  1632.89  1681.41  1777.12
                             1817.82  1844.27  1918.45  1929.90  1943.86
                             1974.59  1991.07  2036.92  2056.81  2063.51
                             2076.75  2158.70  2162.00  2170.62  2174.81
                             2183.74  2190.62  2193.16  2201.93  2232.36
                             2411.85  4326.81  4341.54  4351.85  4354.75
                             4357.35  4367.09  4392.42  4397.82  4405.01
                             4408.35  4447.10  4451.60  4452.63  4543.82
                             4582.58  5431.65  5450.09

 Zero-point correction=                           0.247010 (Hartree/Particle)
 Thermal correction to Energy=                    0.261064
 Thermal correction to Enthalpy=                  0.262008
 Thermal correction to Gibbs Free Energy=         0.205887
 Sum of electronic and zero-point Energies=           -490.285358
 Sum of electronic and thermal Energies=              -490.271304
 Sum of electronic and thermal Enthalpies=            -490.270360
 Sum of electronic and thermal Free Energies=         -490.326480

                     E (Thermal)             CV                S
                      KCal/Mol        Cal/Mol-Kelvin    Cal/Mol-Kelvin
 Total                  163.820             50.838            118.116
 Electronic               0.000              0.000              0.000
 Translational            0.889              2.981             41.046
 Rotational               0.889              2.981             30.861
 Vibrational            162.043             44.877             46.209
 Vibration     1          0.594              1.981              5.297
 Vibration     2          0.595              1.980              5.071
 Vibration     3          0.600              1.962              3.867
 Vibration     4          0.602              1.956              3.639
 Vibration     5          0.605              1.945              3.346
 Vibration     6          0.606              1.942              3.285
 Vibration     7          0.613              1.919              2.876
 Vibration     8          0.631              1.861              2.282
 Vibration     9          0.648              1.808              1.945
 Vibration    10          0.665              1.756              1.701
 Vibration    11          0.667              1.749              1.675
 Vibration    12          0.715              1.609              1.243
 Vibration    13          0.733              1.558              1.129
 Vibration    14          0.743              1.532              1.076
 Vibration    15          0.754              1.501              1.017
 Vibration    16          0.783              1.427              0.892
 Vibration    17          0.819              1.336              0.763
 Vibration    18          0.843              1.280              0.692
 Vibration    19          0.862              1.235              0.641
 Vibration    20          0.896              1.160              0.563
 Vibration    21          0.946              1.055              0.469

 Optimization completed.
    -- Stationary point found.
 Normal termination of Gaussian 16 at Fri Sep 15 03:53:53 2023.
