 Gaussian 16, Revision B.01,
 Gaussian 16:  EM64L-G16RevB.01 20-Dec-2017

 ----------------------------------------------------------------------
 # opt freq b3lyp/6-31+g(d) empiricaldispersion=gd3 scf=maxcycle=1000 v
 olume
 ----------------------------------------------------------------------

 -------------------
 Title Card Required
 -------------------
 Symbolic Z-matrix:
 Charge =  0 Multiplicity = 1

 SCF Done:  E(RB3LYP) =  -323.521372082     A.U. after   13 cycles
 Optimization completed.
    -- Stationary point found.
 Normal termination of Gaussian 16 at Tue Sep 19 06:44:10 2023.

 ---------------------------------------------------------------------
 #N Geom=AllCheck Guess=TCheck SCRF=Check GenChk RB3LYP/6-31+G(d) Freq
 ---------------------------------------------------------------------

 Structure from the checkpoint file:  "molecule32vol.chk"
 -------------------
 Title Card Required
 -------------------
 Charge =  0 Multiplicity = 1

                         Standard orientation:
 ---------------------------------------------------------------------
 Center     Atomic      Atomic             Coordinates (Angstroms)
 Number     Number       Type             X           Y           Z
 ---------------------------------------------------------------------
      1          6           0       -1.808951   -0.074530    0.000036
      2          6           0       -1.171449    1.167485   -0.000047
      3          6           0        0.224397    1.211159    0.000022
      4          6           0        0.922444    0.002435    0.000012
      5          6           0        0.193179   -1.196574    0.000008
      6          7           0       -1.140367   -1.237944    0.000002
      7          1           0        0.755763    2.161405    0.000047
      8          1           0       -2.894233   -0.143410   -0.000062
      9          1           0       -1.752969    2.085239   -0.000027
     10          1           0        0.727101   -2.144290   -0.000001
     11          8           0        2.287650   -0.092988   -0.000047
     12          1           0        2.687993    0.790722    0.000219
 ---------------------------------------------------------------------

 SCF Done:  E(RB3LYP) =  -323.521372082     A.U. after    1 cycles

 The electronic state is 1-A.
 Alpha  occ. eigenvalues --  -19.20694 -14.34474 -10.27294 -10.22910 -10.22659
 Alpha  occ. eigenvalues --  -10.22214 -10.21493  -1.08407  -0.94902  -0.81311
 Alpha  occ. eigenvalues --   -0.76795  -0.65961  -0.63936  -0.56316  -0.52535
 Alpha  occ. eigenvalues --   -0.50324  -0.45611  -0.43514  -0.42549  -0.41541
 Alpha  occ. eigenvalues --   -0.37659  -0.37486  -0.29454  -0.26581  -0.24702
 Alpha virt. eigenvalues --   -0.04003  -0.01551  -0.01356   0.00945   0.02865
 Alpha virt. eigenvalues --    0.04056   0.05290   0.05367   0.06381   0.08695
 Alpha virt. eigenvalues --    0.08946   0.09536   0.09777   0.12847   0.13136

 Mulliken charges:
               1
     1  C   -0.364770
     2  C   -0.005464
     3  C   -0.164494
     4  C    0.329309
     5  C   -0.125233
     6  N   -0.193436
     7  H    0.176517
     8  H    0.181235
     9  H    0.188498
    10  H    0.195775
    11  O   -0.689013
    12  H    0.471073
 Sum of Mulliken charges =   0.00000

 Dipole moment (field-independent basis, Debye):
    X=              1.1481    Y=              3.5012    Z=              0.0004  Tot=              3.6847
 Quadrupole moment (field-independent basis, Debye-Ang):
   XX=            -38.0714   YY=            -39.1818   ZZ=            -43.6288
   XY=              0.6147   XZ=              0.0017   YZ=              0.0005

  Exact polarizability:  85.622  -0.908  75.029   0.000   0.000  38.731
 Approx polarizability: 137.110  -2.072 124.204   0.000   0.000  54.698

                      1                      2                      3
                      A                      A                      A
 Frequencies --    227.6191               324.5214               400.6701
 Red. masses --      4.0103                 1.1071                 4.1932
 Frc consts  --      0.1224                 0.0687                 0.3966
 IR Inten    --      0.1775               120.2842                 8.6758

                      4                      5                      6
                      A                      A                      A
 Frequencies --    423.4689               514.2374               551.5187
 Red. masses --      3.3644                 3.5332                 7.3384
 Frc consts  --      0.3555                 0.5505                 1.3151
 IR Inten    --      1.6157                 1.6903                 3.6299

                      7                      8                      9
                      A                      A                      A
 Frequencies --    633.8047               712.2487               804.9205
 Red. masses --      7.7809                 2.4095                 1.5905
 Frc consts  --      1.8416                 0.7202                 0.6071
 IR Inten    --      4.1209                27.4310                40.8154

                     10                     11                     12
                      A                      A                      A
 Frequencies --    839.0512               913.0906               937.4638
 Red. masses --      7.3155                 1.3088                 1.4105
 Frc consts  --      3.0344                 0.6429                 0.7304
 IR Inten    --      9.0541                 0.2111                 3.7204

                     13                     14                     15
                      A                      A                      A
 Frequencies --    977.9476              1029.4867              1066.9527
 Red. masses --      1.3614                 4.1460                 2.5080
 Frc consts  --      0.7671                 2.5889                 1.6822
 IR Inten    --      0.0316                 7.4542                 4.8472

                     16                     17                     18
                      A                      A                      A
 Frequencies --   1140.7777              1183.3607              1236.6485
 Red. masses --      1.5335                 1.3754                 1.2915
 Frc consts  --      1.1758                 1.1348                 1.1637
 IR Inten    --     49.8217               127.0638                19.9556

                     19                     20                     21
                      A                      A                      A
 Frequencies --   1292.6316              1323.8956              1375.5901
 Red. masses --      2.8403                 6.1048                 1.2163
 Frc consts  --      2.7961                 6.3041                 1.3560
 IR Inten    --     75.0032                44.9177                 9.1527

                     22                     23                     24
                      A                      A                      A
 Frequencies --   1496.6001              1515.9938              1633.4258
 Red. masses --      2.4004                 2.2828                 5.8399
 Frc consts  --      3.1677                 3.0911                 9.1803
 IR Inten    --     19.1419                54.6034                35.0032

                     25                     26                     27
                      A                      A                      A
 Frequencies --   1640.0122              3169.6774              3183.8035
 Red. masses --      5.4735                 1.0894                 1.0886
 Frc consts  --      8.6738                 6.4488                 6.5014
 IR Inten    --     20.8949                12.5103                20.8192

                     28                     29                     30
                      A                      A                      A
 Frequencies --   3188.6279              3207.2322              3744.5893
 Red. masses --      1.0917                 1.0967                 1.0665
 Frc consts  --      6.5395                 6.6464                 8.8106
 IR Inten    --     11.6761                16.5261                48.5476

 - Thermochemistry -
 -------------------
 Temperature   298.150 Kelvin.  Pressure   1.00000 Atm.
 Atom     1 has atomic number  6 and mass  12.00000

 Molecular mass:    95.03711 amu.
 Principal axes and moments of inertia in atomic units:
                           1         2         3
     Eigenvalues --   311.00887 674.40657 985.41544
           X            0.99995  -0.01033   0.00000
           Y            0.01033   0.99995   0.00000
           Z            0.00000   0.00000   1.00000
 This molecule is an asymmetric top.
 Rotational symmetry number  1.
 Rotational temperatures (Kelvin)      0.27849     0.12843     0.08790
 Rotational constants (GHZ):           5.80286     2.67604     1.83145
 Zero-point vibrational energy     243379.5 (Joules/Mol)
                                   58.16909 (Kcal/Mol)
 Warning -- explicit consideration of   6 degrees of freedom as
           vibrations may cause significant error
 Vibrational temperatures:    327.49   466.91   576.47   609.28   739.87
          (Kelvin)            793.51   911.90  1024.77  1158.10  1207.21
                             1313.73  1348.80  1407.05  1481.20  1535.11
                             1641.32  1702.59  1779.26  1859.81  1904.79
                             1979.17  2153.27  2181.18  2350.14  2359.61
                             4560.46  4580.78  4587.72  4614.49  5387.63

 Zero-point correction=                           0.092698 (Hartree/Particle)
 Thermal correction to Energy=                    0.098132
 Thermal correction to Enthalpy=                  0.099076
 Thermal correction to Gibbs Free Energy=         0.063725
 Sum of electronic and zero-point Energies=           -323.428674
 Sum of electronic and thermal Energies=              -323.423241
 Sum of electronic and thermal Enthalpies=            -323.422296
 Sum of electronic and thermal Free Energies=         -323.457647

                     E (Thermal)             CV                S
                      KCal/Mol        Cal/Mol-Kelvin    Cal/Mol-Kelvin
 Total                   61.578             20.906             74.402
 Electronic               0.000              0.000              0.000
 Translational            0.889              2.981             39.566
 Rotational               0.889              2.981             26.827
 Vibrational             59.801             14.945              8.009
 Vibration     1          0.651              1.799              1.898
 Vibration     2          0.709              1.626              1.287
 Vibration     3          0.767              1.469              0.960
 Vibration     4          0.786              1.419              0.880
 Vibration     5          0.869              1.218              0.623
 Vibration     6          0.907              1.136              0.541

 Optimization completed.
    -- Stationary point found.
 Normal termination of Gaussian 16 at Tue Sep 19 06:44:40 2023.
