 Gaussian 16, Revision B.01,
 Gaussian 16:  EM64L-G16RevB.01 20-Dec-2017

 ----------------------------------------------------------------------
 # opt freq b3lyp/6-31+g(d) geom=connectivity empiricaldispersion=gd3 v
 olume
 ----------------------------------------------------------------------

 -----------
 molecule_13
 -----------
 Symbolic Z-matrix:
 Charge =  0 Multiplicity = 1

 SCF Done:  E(RB3LYP) =  -641.751958681     A.U. after   14 cycles
 SCF Done:  E(RB3LYP) =  -641.754313496     A.U. after   12 cycles
 SCF Done:  E(RB3LYP) =  -641.754417415     A.U. after   11 cycles
 SCF Done:  E(RB3LYP) =  -641.754426623     A.U. after   10 cycles
 SCF Done:  E(RB3LYP) =  -641.754430179     A.U. after   10 cycles
 SCF Done:  E(RB3LYP) =  -641.754433567     A.U. after   10 cycles
 SCF Done:  E(RB3LYP) =  -641.754435288     A.U. after   10 cycles
 SCF Done:  E(RB3LYP) =  -641.754435456     A.U. after    9 cycles
 Optimization completed.
    -- Stationary point found.
 Normal termination of Gaussian 16 at Thu Sep 14 11:38:05 2023.

 ---------------------------------------------------------------------
 #N Geom=AllCheck Guess=TCheck SCRF=Check GenChk RB3LYP/6-31+G(d) Freq
 ---------------------------------------------------------------------

 Structure from the checkpoint file:  "MOLECULE_13.chk"
 -----------
 molecule_13
 -----------
 Charge =  0 Multiplicity = 1

                         Standard orientation:
 ---------------------------------------------------------------------
 Center     Atomic      Atomic             Coordinates (Angstroms)
 Number     Number       Type             X           Y           Z
 ---------------------------------------------------------------------
      1          6           0       -1.869577   -0.787327    0.173499
      2          6           0       -2.960816   -1.609623    0.399222
      3          6           0       -4.229242   -1.041107    0.194724
      4          6           0       -4.375378    0.290784   -0.216970
      5          6           0       -3.259041    1.113538   -0.442487
      6          6           0       -2.015644    0.540128   -0.236696
      7          1           0       -2.834475   -2.639393    0.717808
      8          1           0       -5.114211   -1.649220    0.360012
      9          1           0       -5.371543    0.697935   -0.365673
     10          1           0       -3.357947    2.146140   -0.761671
     11          8           0       -0.766366    1.106289   -0.380729
     12          8           0       -0.528089   -1.077517    0.295815
     13          5           0        0.146132    0.099151   -0.049512
     14          6           0        1.676660    0.285508   -0.070619
     15          6           0        2.218569    1.660522   -0.424451
     16          1           0        3.226827    1.587082   -0.849019
     17          1           0        1.587186    2.107662   -1.202455
     18          6           0        2.451713   -0.770219    0.265332
     19          1           0        1.949912   -1.708495    0.511913
     20          6           0        2.244052    2.604380    0.792330
     21          1           0        2.897819    2.208209    1.578758
     22          1           0        2.608688    3.600030    0.511024
     23          1           0        1.239701    2.719538    1.216983
     24          6           0        3.952051   -0.839991    0.330003
     25          1           0        4.406217    0.143054    0.166731
     26          1           0        4.240790   -1.151926    1.345291
     27          6           0        4.523847   -1.854601   -0.679477
     28          1           0        4.296033   -1.550868   -1.707846
     29          1           0        5.612668   -1.935866   -0.578753
     30          1           0        4.094148   -2.851762   -0.522682
 ---------------------------------------------------------------------

 SCF Done:  E(RB3LYP) =  -641.754435456     A.U. after    1 cycles

 The electronic state is 1-A.
 Alpha  occ. eigenvalues --  -19.19654 -19.19539 -10.25509 -10.25446 -10.20592
 Alpha  occ. eigenvalues --  -10.20572 -10.20269 -10.20214 -10.20131 -10.19570
 Alpha  occ. eigenvalues --  -10.18790 -10.18601 -10.17971 -10.17815  -6.79984
 Alpha  occ. eigenvalues --   -1.11079  -1.03695  -0.86119  -0.81725  -0.77187
 Alpha  occ. eigenvalues --   -0.76087  -0.74190  -0.71782  -0.64548  -0.62858
 Alpha  occ. eigenvalues --   -0.62185  -0.60996  -0.58059  -0.52808  -0.52043
 Alpha  occ. eigenvalues --   -0.51997  -0.48625  -0.46985  -0.45727  -0.45454
 Alpha  occ. eigenvalues --   -0.44511  -0.43903  -0.41317  -0.40904  -0.40550
 Alpha  occ. eigenvalues --   -0.38377  -0.37994  -0.37837  -0.37556  -0.37157
 Alpha  occ. eigenvalues --   -0.36406  -0.35429  -0.35225  -0.34752  -0.33865
 Alpha  occ. eigenvalues --   -0.31540  -0.26515  -0.25614  -0.23137
 Alpha virt. eigenvalues --   -0.03687  -0.01378  -0.00257  -0.00031   0.00847
 Alpha virt. eigenvalues --    0.01348   0.01804   0.02082   0.02823   0.04078
 Alpha virt. eigenvalues --    0.04303   0.04623   0.04876   0.05021   0.05988

 Mulliken charges:
               1
     1  C    0.638131
     2  C   -0.794726
     3  C   -0.228266
     4  C   -0.245763
     5  C   -0.659637
     6  C    0.794805
     7  H    0.198354
     8  H    0.180199
     9  H    0.180264
    10  H    0.198604
    11  O   -0.529708
    12  O   -0.517540
    13  B    1.004616
    14  C    0.261577
    15  C   -0.459275
    16  H    0.187391
    17  H    0.213326
    18  C   -0.292608
    19  H    0.196841
    20  C   -0.755437
    21  H    0.205312
    22  H    0.198232
    23  H    0.216026
    24  C   -0.489340
    25  H    0.195086
    26  H    0.208638
    27  C   -0.723573
    28  H    0.211158
    29  H    0.200309
    30  H    0.207006
 Sum of Mulliken charges =   0.00000

 Dipole moment (field-independent basis, Debye):
    X=              0.3746    Y=             -0.2352    Z=              0.0787  Tot=              0.4493
 Quadrupole moment (field-independent basis, Debye-Ang):
   XX=            -78.3352   YY=            -88.0418   ZZ=            -93.3604
   XY=             -0.3395   XZ=              0.4487   YZ=             -2.1034

  Exact polarizability: 224.836  -9.435 159.204   2.435 -10.024 104.678
 Approx polarizability: 286.852 -17.155 247.611   7.306 -28.459 158.031

                      1                      2                      3
                      A                      A                      A
 Frequencies --     30.9030                35.6665                44.0084
 Red. masses --      3.4723                 2.6434                 3.0991
 Frc consts  --      0.0020                 0.0020                 0.0035
 IR Inten    --      0.1296                 0.0499                 0.0383

                      4                      5                      6
                      A                      A                      A
 Frequencies --     54.7884                88.0627               137.5309
 Red. masses --      4.0986                 3.3243                 3.3033
 Frc consts  --      0.0072                 0.0152                 0.0368
 IR Inten    --      0.6303                 0.4134                 0.1585

                      7                      8                      9
                      A                      A                      A
 Frequencies --    201.4367               216.4744               239.5094
 Red. masses --      3.1919                 1.2107                 1.2466
 Frc consts  --      0.0763                 0.0334                 0.0421
 IR Inten    --      0.0675                 0.0185                 0.1535

                     10                     11                     12
                      A                      A                      A
 Frequencies --    244.1830               269.1815               302.6704
 Red. masses --      6.5564                 2.7010                 3.9671
 Frc consts  --      0.2303                 0.1153                 0.2141
 IR Inten    --      0.0038                 0.5878                 0.5388

                     13                     14                     15
                      A                      A                      A
 Frequencies --    335.7396               351.1743               423.4681
 Red. masses --      3.3054                 2.5207                 3.0252
 Frc consts  --      0.2195                 0.1832                 0.3196
 IR Inten    --      0.6766                 0.0739                 2.2510

                     16                     17                     18
                      A                      A                      A
 Frequencies --    441.1868               518.0513               554.2000
 Red. masses --      3.0372                 5.4187                 3.6803
 Frc consts  --      0.3483                 0.8568                 0.6660
 IR Inten    --      3.4125                 0.4227                 0.7664

                     19                     20                     21
                      A                      A                      A
 Frequencies --    565.5534               583.2441               621.3138
 Red. masses --      5.9245                 3.9998                 7.2171
 Frc consts  --      1.1165                 0.8017                 1.6415
 IR Inten    --      0.5183                 0.0003                 0.1699

                     22                     23                     24
                      A                      A                      A
 Frequencies --    654.3977               708.7661               743.7432
 Red. masses --      3.2510                 5.5970                 4.7543
 Frc consts  --      0.8203                 1.6566                 1.5495
 IR Inten    --      2.5847                15.9004                 0.1148

                     25                     26                     27
                      A                      A                      A
 Frequencies --    755.1889               786.8747               807.1393
 Red. masses --      1.2629                 1.8760                 1.6646
 Frc consts  --      0.4244                 0.6844                 0.6389
 IR Inten    --    100.5029                 2.4387                 1.4401

                     28                     29                     30
                      A                      A                      A
 Frequencies --    829.3228               831.5651               862.6109
 Red. masses --      4.5669                 1.5395                 1.4217
 Frc consts  --      1.8506                 0.6272                 0.6233
 IR Inten    --     27.0748                 2.9410                 0.0019

                     31                     32                     33
                      A                      A                      A
 Frequencies --    879.0387               905.4512               920.1595
 Red. masses --      6.6734                 2.3942                 1.4222
 Frc consts  --      3.0382                 1.1565                 0.7095
 IR Inten    --      5.5075                19.8737                13.8398

                     34                     35                     36
                      A                      A                      A
 Frequencies --    932.3280               951.3633               974.1097
 Red. masses --      1.3798                 1.9097                 1.2586
 Frc consts  --      0.7066                 1.0184                 0.7036
 IR Inten    --      4.0519                 9.2305                 0.0001

                     37                     38                     39
                      A                      A                      A
 Frequencies --   1020.3381              1029.7448              1048.9699
 Red. masses --      2.7544                 1.9957                 2.5629
 Frc consts  --      1.6896                 1.2468                 1.6615
 IR Inten    --     10.6000                15.3629                 6.8191

                     40                     41                     42
                      A                      A                      A
 Frequencies --   1097.1200              1104.5912              1105.4714
 Red. masses --      1.6975                 1.6456                 3.0514
 Frc consts  --      1.2038                 1.1830                 2.1971
 IR Inten    --      3.7043                 4.7638                 2.4540

                     43                     44                     45
                      A                      A                      A
 Frequencies --   1133.1402              1158.6550              1182.3592
 Red. masses --      1.6782                 1.9613                 2.2104
 Frc consts  --      1.2696                 1.5513                 1.8206
 IR Inten    --     28.5693                28.7145                65.8473

                     46                     47                     48
                      A                      A                      A
 Frequencies --   1189.4302              1259.5029              1273.1421
 Red. masses --      1.1987                 8.2123                 4.4679
 Frc consts  --      0.9991                 7.6756                 4.2668
 IR Inten    --     26.5976                53.2615               301.8587

                     49                     50                     51
                      A                      A                      A
 Frequencies --   1290.7769              1297.1255              1307.8612
 Red. masses --      1.2545                 1.2185                 1.4987
 Frc consts  --      1.2315                 1.2080                 1.5104
 IR Inten    --     55.4803                37.8249                 2.0216

                     52                     53                     54
                      A                      A                      A
 Frequencies --   1343.9110              1362.0990              1376.5564
 Red. masses --      1.3713                 1.3896                 3.3196
 Frc consts  --      1.4592                 1.5190                 3.7062
 IR Inten    --     20.7467                20.0980               312.0425

                     55                     56                     57
                      A                      A                      A
 Frequencies --   1407.3288              1418.8370              1429.1064
 Red. masses --      1.8080                 2.4373                 1.2220
 Frc consts  --      2.1098                 2.8908                 1.4704
 IR Inten    --     24.5101               102.0702                 3.1492

                     58                     59                     60
                      A                      A                      A
 Frequencies --   1434.4816              1504.8469              1507.1226
 Red. masses --      1.3653                 1.0940                 2.4136
 Frc consts  --      1.6553                 1.4597                 3.2300
 IR Inten    --     25.9565                 2.6675                 1.7829

                     61                     62                     63
                      A                      A                      A
 Frequencies --   1513.4968              1518.4997              1520.5995
 Red. masses --      2.9232                 1.0579                 1.0411
 Frc consts  --      3.9453                 1.4372                 1.4183
 IR Inten    --    115.2291                11.2113                 7.8715

                     64                     65                     66
                      A                      A                      A
 Frequencies --   1522.1046              1526.2633              1540.5582
 Red. masses --      1.0418                 1.0646                 1.0976
 Frc consts  --      1.4220                 1.4611                 1.5348
 IR Inten    --      1.7946                 4.0418                 6.9580

                     67                     68                     69
                      A                      A                      A
 Frequencies --   1654.9261              1663.6764              1688.2222
 Red. masses --      7.3080                 7.1911                 6.2564
 Frc consts  --     11.7926                11.7269                10.5058
 IR Inten    --      2.3607                 0.0243                89.8433

                     70                     71                     72
                      A                      A                      A
 Frequencies --   3017.7989              3036.2699              3038.9087
 Red. masses --      1.0702                 1.0344                 1.0345
 Frc consts  --      5.7426                 5.6183                 5.6289
 IR Inten    --     25.4533                43.0822                41.1988

                     73                     74                     75
                      A                      A                      A
 Frequencies --   3046.2125              3073.9644              3086.8156
 Red. masses --      1.0607                 1.1023                 1.0926
 Frc consts  --      5.7992                 6.1370                 6.1338
 IR Inten    --     23.1129                 7.4956                 2.6202

                     76                     77                     78
                      A                      A                      A
 Frequencies --   3103.2203              3107.5690              3110.5971
 Red. masses --      1.1020                 1.1009                 1.1029
 Frc consts  --      6.2523                 6.2637                 6.2876
 IR Inten    --     45.5038                24.2219                81.6527

                     79                     80                     81
                      A                      A                      A
 Frequencies --   3112.3472              3133.8829              3188.5467
 Red. masses --      1.1020                 1.0886                 1.0866
 Frc consts  --      6.2896                 6.2991                 6.5089
 IR Inten    --     29.9977                25.3831                 2.1023

                     82                     83                     84
                      A                      A                      A
 Frequencies --   3203.1612              3217.6360              3220.9523
 Red. masses --      1.0912                 1.0938                 1.0958
 Frc consts  --      6.5963                 6.6719                 6.6983
 IR Inten    --     17.2156                11.3502                 4.8077

 - Thermochemistry -
 -------------------
 Temperature   298.150 Kelvin.  Pressure   1.00000 Atm.
 Atom     1 has atomic number  6 and mass  12.00000

 Molecular mass:   202.11651 amu.
 Principal axes and moments of inertia in atomic units:
                           1         2         3
     Eigenvalues --  1387.401966045.442397140.30064
           X            0.99999  -0.00308  -0.00115
           Y            0.00309   0.99994   0.01050
           Z            0.00111  -0.01050   0.99994
 This molecule is an asymmetric top.
 Rotational symmetry number  1.
 Warning -- assumption of classical behavior for rotation
           may cause significant error
 Rotational temperatures (Kelvin)      0.06243     0.01433     0.01213
 Rotational constants (GHZ):           1.30081     0.29853     0.25275
 Zero-point vibrational energy     657522.4 (Joules/Mol)
                                  157.15161 (Kcal/Mol)
 Warning -- explicit consideration of  20 degrees of freedom as
           vibrations may cause significant error
 Vibrational temperatures:     44.46    51.32    63.32    78.83   126.70
          (Kelvin)            197.88   289.82   311.46   344.60   351.32
                              387.29   435.48   483.05   505.26   609.28
                              634.77   745.36   797.37   813.71   839.16
                              893.93   941.53  1019.76  1070.08  1086.55
                             1132.14  1161.29  1193.21  1196.44  1241.10
                             1264.74  1302.74  1323.90  1341.41  1368.80
                             1401.53  1468.04  1481.57  1509.23  1578.51
                             1589.26  1590.53  1630.34  1667.05  1701.15
                             1711.32  1812.14  1831.77  1857.14  1866.27
                             1881.72  1933.59  1959.76  1980.56  2024.83
                             2041.39  2056.17  2063.90  2165.14  2168.41
                             2177.58  2184.78  2187.80  2189.97  2195.95
                             2216.52  2381.07  2393.66  2428.98  4341.94
                             4368.52  4372.31  4382.82  4422.75  4441.24
                             4464.84  4471.10  4475.46  4477.97  4508.96
                             4587.61  4608.63  4629.46  4634.23

 Zero-point correction=                           0.250437 (Hartree/Particle)
 Thermal correction to Energy=                    0.264755
 Thermal correction to Enthalpy=                  0.265699
 Thermal correction to Gibbs Free Energy=         0.207259
 Sum of electronic and zero-point Energies=           -641.503998
 Sum of electronic and thermal Energies=              -641.489680
 Sum of electronic and thermal Enthalpies=            -641.488736
 Sum of electronic and thermal Free Energies=         -641.547176

                     E (Thermal)             CV                S
                      KCal/Mol        Cal/Mol-Kelvin    Cal/Mol-Kelvin
 Total                  166.136             53.901            122.997
 Electronic               0.000              0.000              0.000
 Translational            0.889              2.981             41.816
 Rotational               0.889              2.981             32.460
 Vibrational            164.359             47.939             48.722
 Vibration     1          0.594              1.984              5.771
 Vibration     2          0.594              1.982              5.486
 Vibration     3          0.595              1.980              5.070
 Vibration     4          0.596              1.976              4.637
 Vibration     5          0.601              1.958              3.703
 Vibration     6          0.614              1.916              2.838
 Vibration     7          0.638              1.838              2.120
 Vibration     8          0.645              1.816              1.988
 Vibration     9          0.657              1.780              1.807
 Vibration    10          0.660              1.772              1.772
 Vibration    11          0.674              1.730              1.601
 Vibration    12          0.694              1.669              1.402
 Vibration    13          0.717              1.604              1.232
 Vibration    14          0.728              1.573              1.161
 Vibration    15          0.786              1.419              0.880
 Vibration    16          0.801              1.380              0.823
 Vibration    17          0.873              1.210              0.614
 Vibration    18          0.910              1.131              0.536
 Vibration    19          0.921              1.106              0.513
 Vibration    20          0.940              1.068              0.479

                           ! Non-Optimized Parameters !
 Normal termination of Gaussian 16 at Thu Sep 14 11:42:52 2023.
