 Gaussian 09, Revision D.01,
 Gaussian 09:  EM64W-G09RevD.01 13-Apr-2013

 ---------------------------------------------------------------------
 # opt freq rb3lyp/6-31+g(d) geom=connectivity empiricaldispersion=gd3
 ---------------------------------------------------------------------

 -------------------
 Title Card Required
 -------------------
 Symbolic Z-matrix:
 Charge =  0 Multiplicity = 1

 SCF Done:  E(RB3LYP) =  -511.982352410     A.U. after   16 cycles
 SCF Done:  E(RB3LYP) =  -511.999583196     A.U. after   13 cycles
 SCF Done:  E(RB3LYP) =  -512.002353737     A.U. after   13 cycles
 SCF Done:  E(RB3LYP) =  -512.003423010     A.U. after   13 cycles
 SCF Done:  E(RB3LYP) =  -511.996937919     A.U. after   15 cycles
 SCF Done:  E(RB3LYP) =  -512.003588829     A.U. after   11 cycles
 SCF Done:  E(RB3LYP) =  -512.003717196     A.U. after   12 cycles
 SCF Done:  E(RB3LYP) =  -512.003731951     A.U. after   11 cycles
 SCF Done:  E(RB3LYP) =  -512.003733145     A.U. after   10 cycles
 SCF Done:  E(RB3LYP) =  -512.003733234     A.U. after   10 cycles
 Optimization completed.
    -- Stationary point found.
 Normal termination of Gaussian 09 at Thu Sep 14 13:35:14 2023.

 ---------------------------------------------------------------------
 #N Geom=AllCheck Guess=TCheck SCRF=Check GenChk RB3LYP/6-31+G(d) Freq
 ---------------------------------------------------------------------

 Structure from the checkpoint file:  "C:\Users\vivek\Downloads\molecule_35.chk"
 -------------------
 Title Card Required
 -------------------
 Charge =  0 Multiplicity = 1

                         Standard orientation:
 ---------------------------------------------------------------------
 Center     Atomic      Atomic             Coordinates (Angstroms)
 Number     Number       Type             X           Y           Z
 ---------------------------------------------------------------------
      1          6           0       -1.376345    1.228225    0.000202
      2          6           0        0.011857    1.223085    0.000179
      3          6           0       -2.078618    0.013544    0.000035
      4          6           0        0.692381    0.000549   -0.000004
      5          6           0        0.005063   -1.214765   -0.000218
      6          6           0       -1.385882   -1.206973   -0.000207
      7          1           0        0.559117   -2.145927   -0.000367
      8          1           0       -1.933472   -2.146871   -0.000404
      9          8           0       -3.437670    0.088705    0.000009
     10          1           0       -3.830087   -0.798886   -0.000038
     11          1           0       -1.934621    2.158632    0.000340
     12          1           0        0.574186    2.149252    0.000317
     13          7           0        2.156893   -0.006258    0.000004
     14          8           0        2.730130   -1.099657    0.000524
     15          8           0        2.739526    1.081654   -0.000507
 ---------------------------------------------------------------------

 SCF Done:  E(RB3LYP) =  -512.003733234     A.U. after    1 cycles

 The electronic state is 1-A.
 Alpha  occ. eigenvalues --  -19.22626 -19.19329 -19.19313 -14.58173 -10.29799
 Alpha  occ. eigenvalues --  -10.26239 -10.23846 -10.23596 -10.23310 -10.22641
 Alpha  occ. eigenvalues --   -1.23267  -1.10511  -1.05979  -0.90278  -0.81701
 Alpha  occ. eigenvalues --   -0.79238  -0.71492  -0.66319  -0.62028  -0.58707
 Alpha  occ. eigenvalues --   -0.56435  -0.53940  -0.52745  -0.50230  -0.48404
 Alpha  occ. eigenvalues --   -0.46574  -0.45007  -0.44870  -0.42046  -0.38193
 Alpha  occ. eigenvalues --   -0.37677  -0.32054  -0.31988  -0.30102  -0.29402
 Alpha  occ. eigenvalues --   -0.26787
 Alpha virt. eigenvalues --   -0.10070  -0.04663  -0.02385  -0.00906   0.00535
 Alpha virt. eigenvalues --    0.01572   0.03163   0.04644   0.05110   0.05872
 Alpha virt. eigenvalues --    0.07595   0.07712   0.08206   0.09450   0.11409

 Mulliken charges:
               1
     1  C   -0.092782
     2  C   -0.263844
     3  C    0.284117
     4  C    0.113538
     5  C   -0.331921
     6  C    0.028618
     7  H    0.232264
     8  H    0.181438
     9  O   -0.675577
    10  H    0.484583
    11  H    0.207503
    12  H    0.232362
    13  N   -0.285095
    14  O   -0.058825
    15  O   -0.056381
 Sum of Mulliken charges =   0.00000

 Dipole moment (field-independent basis, Debye):
    X=             -5.4472    Y=             -1.4043    Z=             -0.0001  Tot=              5.6253
 Quadrupole moment (field-independent basis, Debye-Ang):
   XX=            -66.0767   YY=            -52.0903   ZZ=            -58.7898
   XY=              6.3970   XZ=              0.0003   YZ=              0.0040

  Exact polarizability: 134.460   1.369  97.084   0.000   0.000  46.790
 Approx polarizability: 211.273   1.227 182.342  -0.001  -0.010  68.155

                      1                      2                      3
                      A                      A                      A
 Frequencies --     63.0115               113.4946               234.8235
 Red. masses --      7.8416                 7.6717                 8.1484
 Frc consts  --      0.0183                 0.0582                 0.2647
 IR Inten    --      0.3062                 1.2963                 2.5011

                      4                      5                      6
                      A                      A                      A
 Frequencies --    299.1421               363.8862               387.1420
 Red. masses --      6.0544                11.3098                 1.1172
 Frc consts  --      0.3192                 0.8823                 0.0987
 IR Inten    --      1.9703                 0.0871               122.1246

                      7                      8                      9
                      A                      A                      A
 Frequencies --    413.7307               425.8043               501.3877
 Red. masses --      4.7023                 3.0389                 2.8039
 Frc consts  --      0.4742                 0.3246                 0.4153
 IR Inten    --      9.3127                 0.6843                12.2444

                     10                     11                     12
                      A                      A                      A
 Frequencies --    537.8832               636.4585               645.2922
 Red. masses --      6.6640                 7.7374                 7.0391
 Frc consts  --      1.1360                 1.8466                 1.7269
 IR Inten    --      2.8189                21.2538                 1.2474

                     13                     14                     15
                      A                      A                      A
 Frequencies --    678.8148               749.2724               818.6189
 Red. masses --      3.6794                 7.0920                 1.2936
 Frc consts  --      0.9989                 2.3459                 0.5107
 IR Inten    --      8.7190                24.5416                 6.7494

                     16                     17                     18
                      A                      A                      A
 Frequencies --    820.3167               859.5254               872.9757
 Red. masses --      7.3816                 1.7151                 8.6258
 Frc consts  --      2.9266                 0.7466                 3.8730
 IR Inten    --      0.2386                46.5533                38.8567

                     19                     20                     21
                      A                      A                      A
 Frequencies --    970.3799               987.4455              1027.9669
 Red. masses --      1.3060                 1.3198                 2.8295
 Frc consts  --      0.7246                 0.7582                 1.7616
 IR Inten    --      1.4592                 0.1208                 0.0017

                     22                     23                     24
                      A                      A                      A
 Frequencies --   1133.8380              1144.1293              1195.9253
 Red. masses --      3.0442                 1.3618                 1.2830
 Frc consts  --      2.3058                 1.0503                 1.0811
 IR Inten    --    121.0847                11.6763               126.9048

                     25                     26                     27
                      A                      A                      A
 Frequencies --   1211.5944              1307.6979              1346.4837
 Red. masses --      1.2352                 3.7875                 1.3662
 Frc consts  --      1.0683                 3.8161                 1.4593
 IR Inten    --     66.4160               181.1109                15.7308

                     28                     29                     30
                      A                      A                      A
 Frequencies --   1375.5849              1393.6886              1482.1309
 Red. masses --     12.1786                 5.3771                 3.0072
 Frc consts  --     13.5776                 6.1536                 3.8922
 IR Inten    --    429.8369                 8.0294                20.8704

                     31                     32                     33
                      A                      A                      A
 Frequencies --   1541.9169              1588.5647              1648.9419
 Red. masses --      2.4955                10.7750                 6.2312
 Frc consts  --      3.4957                16.0205                 9.9823
 IR Inten    --     56.2654               206.4583               157.9821

                     34                     35                     36
                      A                      A                      A
 Frequencies --   1661.1473              3182.5566              3220.5719
 Red. masses --      6.6954                 1.0908                 1.0907
 Frc consts  --     10.8853                 6.5092                 6.6653
 IR Inten    --     76.9511                12.2540                 1.8913

                     37                     38                     39
                      A                      A                      A
 Frequencies --   3245.1831              3246.8355              3746.4202
 Red. masses --      1.0926                 1.0935                 1.0664
 Frc consts  --      6.7793                 6.7917                 8.8187
 IR Inten    --      1.8044                 2.0914                82.9048

 - Thermochemistry -
 -------------------
 Temperature   298.150 Kelvin.  Pressure   1.00000 Atm.
 Atom     1 has atomic number  6 and mass  12.00000

 Molecular mass:   139.02694 amu.
 Principal axes and moments of inertia in atomic units:
                           1         2         3
     Eigenvalues --   459.539982212.260832671.80073
           X            0.99998   0.00627   0.00000
           Y           -0.00627   0.99998   0.00002
           Z            0.00000  -0.00002   1.00000
 This molecule is an asymmetric top.
 Rotational symmetry number  1.
 Warning -- assumption of classical behavior for rotation
           may cause significant error
 Rotational temperatures (Kelvin)      0.18848     0.03915     0.03242
 Rotational constants (GHZ):           3.92728     0.81579     0.67548
 Zero-point vibrational energy     281604.4 (Joules/Mol)
                                   67.30507 (Kcal/Mol)
 Warning -- explicit consideration of  10 degrees of freedom as
           vibrations may cause significant error
 Vibrational temperatures:     90.66   163.29   337.86   430.40   523.55
          (Kelvin)            557.01   595.27   612.64   721.38   773.89
                              915.72   928.43   976.66  1078.03  1177.81
                             1180.25  1236.66  1256.02  1396.16  1420.71
                             1479.01  1631.34  1646.14  1720.67  1743.21
                             1881.48  1937.29  1979.16  2005.20  2132.45
                             2218.47  2285.59  2372.46  2390.02  4578.98
                             4633.68  4669.09  4671.47  5390.26

 Zero-point correction=                           0.107257 (Hartree/Particle)
 Thermal correction to Energy=                    0.115211
 Thermal correction to Enthalpy=                  0.116156
 Thermal correction to Gibbs Free Energy=         0.074007
 Sum of electronic and zero-point Energies=           -511.896476
 Sum of electronic and thermal Energies=              -511.888522
 Sum of electronic and thermal Enthalpies=            -511.887578
 Sum of electronic and thermal Free Energies=         -511.929726

                     E (Thermal)             CV                S
                      KCal/Mol        Cal/Mol-Kelvin    Cal/Mol-Kelvin
 Total                   72.296             30.313             88.709
 Electronic               0.000              0.000              0.000
 Translational            0.889              2.981             40.700
 Rotational               0.889              2.981             29.386
 Vibrational             70.519             24.351             18.622
 Vibration     1          0.597              1.972              4.361
 Vibration     2          0.607              1.938              3.208
 Vibration     3          0.655              1.788              1.842
 Vibration     4          0.692              1.675              1.422
 Vibration     5          0.737              1.547              1.105
 Vibration     6          0.756              1.498              1.011
 Vibration     7          0.777              1.440              0.914
 Vibration     8          0.788              1.414              0.872
 Vibration     9          0.857              1.247              0.655
 Vibration    10          0.893              1.166              0.570

 Optimization completed.
    -- Stationary point found.
 Normal termination of Gaussian 09 at Thu Sep 14 13:42:53 2023.
