 Gaussian 09, Revision D.01,
 Gaussian 09:  EM64W-G09RevD.01 13-Apr-2013

 --------------------------------------------------------------------
 # opt freq b3lyp/6-31+g(d) geom=connectivity empiricaldispersion=gd3
 --------------------------------------------------------------------

 -------------------
 Title Card Required
 -------------------
 Symbolic Z-matrix:
 Charge =  0 Multiplicity = 2

 SCF Done:  E(UB3LYP) =  -323.709310565     A.U. after   25 cycles
 SCF Done:  E(UB3LYP) =  -323.726147644     A.U. after   29 cycles
 SCF Done:  E(UB3LYP) =  -323.726496434     A.U. after   24 cycles
 SCF Done:  E(UB3LYP) =  -323.726690248     A.U. after   33 cycles
 SCF Done:  E(UB3LYP) =  -323.726675728     A.U. after   27 cycles
 SCF Done:  E(UB3LYP) =  -323.726907060     A.U. after   25 cycles
 SCF Done:  E(UB3LYP) =  -323.727116252     A.U. after   34 cycles
 SCF Done:  E(UB3LYP) =  -323.727595805     A.U. after   26 cycles
 SCF Done:  E(UB3LYP) =  -323.727681274     A.U. after   24 cycles
 SCF Done:  E(UB3LYP) =  -323.727683144     A.U. after   26 cycles
 SCF Done:  E(UB3LYP) =  -323.727696805     A.U. after   33 cycles
 SCF Done:  E(UB3LYP) =  -323.727700075     A.U. after   27 cycles
 Optimization completed.
    -- Stationary point found.
 Normal termination of Gaussian 09 at Thu Aug 24 16:01:33 2023.

 ---------------------------------------------------------------------
 #N Geom=AllCheck Guess=TCheck SCRF=Check GenChk UB3LYP/6-31+G(d) Freq
 ---------------------------------------------------------------------

 Structure from the checkpoint file:  "C:\Users\123\Desktop\ML project\molecule_5.chk"
 -------------------
 Title Card Required
 -------------------
 Charge =  0 Multiplicity = 2

                         Standard orientation:
 ---------------------------------------------------------------------
 Center     Atomic      Atomic             Coordinates (Angstroms)
 Number     Number       Type             X           Y           Z
 ---------------------------------------------------------------------
      1          6           0        1.379368   -1.176361    0.000068
      2          6           0       -0.629470   -0.072485    0.000137
      3          6           0       -0.002962    1.186575    0.000083
      4          6           0        1.389333    1.224135   -0.000083
      5          6           0        2.100431    0.021284   -0.000053
      6          1           0        1.894922   -2.134563    0.000037
      7          1           0       -0.599546    2.093088    0.000129
      8          1           0        1.910339    2.177813   -0.000124
      9          1           0        3.186294    0.006536   -0.000121
     10          6           0       -2.064804   -0.192967    0.000336
     11          6           0       -3.287453    0.095760   -0.000312
     12          7           0        0.043048   -1.236932   -0.000140
 ---------------------------------------------------------------------

 SCF Done:  E(UB3LYP) =  -323.727700075     A.U. after    1 cycles

 The electronic state is 2-A.
 Alpha  occ. eigenvalues --  -14.36368 -10.27744 -10.25447 -10.25081 -10.24555
 Alpha  occ. eigenvalues --  -10.23688 -10.23093 -10.22643  -0.97572  -0.83164
 Alpha  occ. eigenvalues --   -0.82682  -0.76867  -0.67220  -0.65874  -0.57510
 Alpha  occ. eigenvalues --   -0.51793  -0.51079  -0.46777  -0.43426  -0.43368
 Alpha  occ. eigenvalues --   -0.40383  -0.36063  -0.34127  -0.31824  -0.31181
 Alpha  occ. eigenvalues --   -0.28843  -0.26828
 Alpha virt. eigenvalues --   -0.07022  -0.05061  -0.02066  -0.00159   0.01840
 Alpha virt. eigenvalues --    0.02636   0.03931   0.04542   0.04788   0.04919
 Alpha virt. eigenvalues --    0.05681   0.07412   0.07901   0.08232   0.09125

  Beta  occ. eigenvalues --  -14.36313 -10.27731 -10.25057 -10.24261 -10.24030
  Beta  occ. eigenvalues --  -10.23680 -10.23106 -10.22659  -0.97470  -0.83150
  Beta  occ. eigenvalues --   -0.81677  -0.74943  -0.66654  -0.65746  -0.57125
  Beta  occ. eigenvalues --   -0.51546  -0.50944  -0.46628  -0.43345  -0.43334
  Beta  occ. eigenvalues --   -0.40116  -0.33700  -0.31154  -0.30203  -0.28691
  Beta  occ. eigenvalues --   -0.26177
  Beta virt. eigenvalues --   -0.19981  -0.06541  -0.05038  -0.00872   0.01207
  Beta virt. eigenvalues --    0.02159   0.03006   0.04475   0.04643   0.04858
  Beta virt. eigenvalues --    0.04951   0.06102   0.07531   0.08038   0.08301

 Mulliken charges and spin densities:
               1          2
     1  C   -0.176140   0.013840
     2  C    0.405489  -0.006952
     3  C   -0.084666  -0.007776
     4  C   -0.373777   0.014481
     5  C   -0.001101  -0.016226
     6  H    0.188414  -0.000236
     7  H    0.210732   0.000363
     8  H    0.198379  -0.000230
     9  H    0.195016   0.000863
    10  C    0.612813   0.069774
    11  C   -1.048642   0.918841
    12  N   -0.126516   0.013258
 Sum of Mulliken charges =   0.00000   1.00000

 Dipole moment (field-independent basis, Debye):
    X=              3.6498    Y=              1.4856    Z=             -0.0015  Tot=              3.9406
 Quadrupole moment (field-independent basis, Debye-Ang):
   XX=            -47.3293   YY=            -44.4301   ZZ=            -48.9720
   XY=              0.8721   XZ=              0.0067   YZ=              0.0013

  Exact polarizability: 158.155 -10.314  81.325   0.151   0.017  37.128
 Approx polarizability: 235.171 -20.168 137.207  -0.012  -0.012  67.342

                      1                      2                      3
                      A                      A                      A
 Frequencies --    144.6864               158.0155               363.2191
 Red. masses --      5.9097                 7.4296                 3.9332
 Frc consts  --      0.0729                 0.1093                 0.3057
 IR Inten    --      1.2995                 6.7237                 7.1502

                      4                      5                      6
                      A                      A                      A
 Frequencies --    437.3542               485.3956               516.7293
 Red. masses --      4.1066                 9.4262                 9.1279
 Frc consts  --      0.4628                 1.3085                 1.4360
 IR Inten    --      1.6753                 0.6394                 7.2939

                      7                      8                      9
                      A                      A                      A
 Frequencies --    621.4961               637.0911               747.9065
 Red. masses --      3.3384                 7.3361                 2.2153
 Frc consts  --      0.7597                 1.7544                 0.7301
 IR Inten    --      9.2765                 2.6266                10.7167

                     10                     11                     12
                      A                      A                      A
 Frequencies --    780.5974               799.4343               905.9588
 Red. masses --      6.7286                 2.0341                 1.3070
 Frc consts  --      2.4156                 0.7659                 0.6320
 IR Inten    --    113.5239                98.9369                 0.0101

                     13                     14                     15
                      A                      A                      A
 Frequencies --    982.1055               995.5687              1011.8167
 Red. masses --      1.4145                 6.9384                 1.3163
 Frc consts  --      0.8038                 4.0518                 0.7939
 IR Inten    --      1.3688                 9.4172                 0.2946

                     16                     17                     18
                      A                      A                      A
 Frequencies --   1064.0731              1122.3276              1155.7460
 Red. masses --      2.6415                 1.6021                 3.9030
 Frc consts  --      1.7622                 1.1890                 3.0716
 IR Inten    --     28.6110                 2.2119               635.7301

                     19                     20                     21
                      A                      A                      A
 Frequencies --   1191.3968              1300.7714              1319.0929
 Red. masses --      1.1602                 7.4101                 1.4976
 Frc consts  --      0.9703                 7.3871                 1.5353
 IR Inten    --     22.8288                 5.4860                 2.2724

                     22                     23                     24
                      A                      A                      A
 Frequencies --   1444.9176              1486.0231              1538.8095
 Red. masses --      2.0788                 2.0867                 6.5523
 Frc consts  --      2.5572                 2.7149                 9.1414
 IR Inten    --    385.5462               192.5188               432.1943

                     25                     26                     27
                      A                      A                      A
 Frequencies --   1614.2394              1634.7510              3181.7644
 Red. masses --      5.4466                 5.2058                 1.0890
 Frc consts  --      8.3620                 8.1967                 6.4956
 IR Inten    --    103.1411                17.1140                16.5781

                     28                     29                     30
                      A                      A                      A
 Frequencies --   3196.7018              3214.6136              3222.6141
 Red. masses --      1.0893                 1.0942                 1.0969
 Frc consts  --      6.5582                 6.6619                 6.7115
 IR Inten    --      7.4481                17.7747                 3.4713

 - Thermochemistry -
 -------------------
 Temperature   298.150 Kelvin.  Pressure   1.00000 Atm.
 Atom     1 has atomic number  6 and mass  12.00000

 Molecular mass:   102.03437 amu.
 Principal axes and moments of inertia in atomic units:
                           1         2         3
     Eigenvalues --   311.654001078.703571390.35755
           X            0.99999  -0.00455   0.00000
           Y            0.00455   0.99999   0.00000
           Z            0.00000   0.00000   1.00000
 This molecule is an asymmetric top.
 Rotational symmetry number  1.
 Rotational temperatures (Kelvin)      0.27792     0.08029     0.06230
 Rotational constants (GHZ):           5.79085     1.67307     1.29804
 Zero-point vibrational energy     222955.3 (Joules/Mol)
                                   53.28760 (Kcal/Mol)
 Warning -- explicit consideration of   6 degrees of freedom as
           vibrations may cause significant error
 Vibrational temperatures:    208.17   227.35   522.59   629.25   698.38
          (Kelvin)            743.46   894.19   916.63  1076.07  1123.10
                             1150.21  1303.47  1413.03  1432.40  1455.78
                             1530.96  1614.78  1662.86  1714.15  1871.52
                             1897.88  2078.91  2138.05  2214.00  2322.53
                             2352.04  4577.84  4599.34  4625.11  4636.62

 Zero-point correction=                           0.084919 (Hartree/Particle)
 Thermal correction to Energy=                    0.090946
 Thermal correction to Enthalpy=                  0.091890
 Thermal correction to Gibbs Free Energy=         0.054070
 Sum of electronic and zero-point Energies=           -323.642781
 Sum of electronic and thermal Energies=              -323.636754
 Sum of electronic and thermal Enthalpies=            -323.635810
 Sum of electronic and thermal Free Energies=         -323.673631

                     E (Thermal)             CV                S
                      KCal/Mol        Cal/Mol-Kelvin    Cal/Mol-Kelvin
 Total                   57.070             22.486             79.601
 Electronic               0.000              0.000              1.377
 Translational            0.889              2.981             39.778
 Rotational               0.889              2.981             27.638
 Vibrational             55.292             16.524             10.807
 Vibration     1          0.616              1.908              2.741
 Vibration     2          0.621              1.894              2.573
 Vibration     3          0.737              1.548              1.108
 Vibration     4          0.798              1.389              0.835
 Vibration     5          0.841              1.282              0.696
 Vibration     6          0.872              1.213              0.618

 Optimization completed.
    -- Stationary point found.
 Normal termination of Gaussian 09 at Thu Aug 24 16:07:55 2023.
