 Gaussian 09, Revision D.01,
 Gaussian 09:  EM64W-G09RevD.01 13-Apr-2013

 ---------------------------------------------------------------------
 # opt freq rb3lyp/6-31+g(d) geom=connectivity empiricaldispersion=gd3
 ---------------------------------------------------------------------

 -------------------
 Title Card Required
 -------------------
 Symbolic Z-matrix:
 Charge =  0 Multiplicity = 1

 SCF Done:  E(RB3LYP) =  -767.079179361     A.U. after   14 cycles
 SCF Done:  E(RB3LYP) =  -767.082643688     A.U. after   13 cycles
 SCF Done:  E(RB3LYP) =  -767.083406563     A.U. after   12 cycles
 SCF Done:  E(RB3LYP) =  -767.083785832     A.U. after   12 cycles
 SCF Done:  E(RB3LYP) =  -767.083861395     A.U. after   11 cycles
 SCF Done:  E(RB3LYP) =  -767.083878890     A.U. after   11 cycles
 Optimization completed.
    -- Stationary point found.
 Normal termination of Gaussian 09 at Thu Sep 14 13:46:10 2023.

 ---------------------------------------------------------------------
 #N Geom=AllCheck Guess=TCheck SCRF=Check GenChk RB3LYP/6-31+G(d) Freq
 ---------------------------------------------------------------------

 Structure from the checkpoint file:  "C:\Users\vivek\Downloads\molecule_36.chk"
 -------------------
 Title Card Required
 -------------------
 Charge =  0 Multiplicity = 1

                         Standard orientation:
 ---------------------------------------------------------------------
 Center     Atomic      Atomic             Coordinates (Angstroms)
 Number     Number       Type             X           Y           Z
 ---------------------------------------------------------------------
      1          6           0       -1.118796    1.221761    0.000070
      2          6           0        0.274749    1.215033   -0.000010
      3          6           0       -1.825019    0.013567    0.000380
      4          6           0        0.961082   -0.002055    0.000208
      5          6           0        0.266208   -1.210318    0.000050
      6          6           0       -1.131086   -1.201205    0.000057
      7          1           0        0.807304   -2.151005   -0.000086
      8          1           0       -1.675240   -2.143710   -0.000452
      9          8           0       -3.193464    0.090686   -0.000331
     10          1           0       -3.579889   -0.798672    0.000314
     11          1           0       -1.671916    2.155785    0.000032
     12          1           0        0.826839    2.149335   -0.000208
     13         17           0        2.722223   -0.009290   -0.000087
 ---------------------------------------------------------------------

 SCF Done:  E(RB3LYP) =  -767.083878890     A.U. after    1 cycles

 The electronic state is 1-A.
 Alpha  occ. eigenvalues -- -101.55457 -19.20360 -10.27198 -10.25725 -10.21834
 Alpha  occ. eigenvalues --  -10.21643 -10.21528 -10.20897  -9.46970  -7.23377
 Alpha  occ. eigenvalues --   -7.22398  -7.22382  -1.08051  -0.89618  -0.84131
 Alpha  occ. eigenvalues --   -0.77270  -0.73889  -0.64731  -0.61711  -0.56689
 Alpha  occ. eigenvalues --   -0.50872  -0.48909  -0.46175  -0.44684  -0.42907
 Alpha  occ. eigenvalues --   -0.41484  -0.39230  -0.38359  -0.36632  -0.32089
 Alpha  occ. eigenvalues --   -0.31768  -0.27542  -0.23477
 Alpha virt. eigenvalues --   -0.03170  -0.01595  -0.01287   0.00698   0.01449
 Alpha virt. eigenvalues --    0.02284   0.04342   0.05054   0.06094   0.06220
 Alpha virt. eigenvalues --    0.07776   0.07929   0.08626   0.08751   0.12097

 Mulliken charges:
               1
     1  C    0.071559
     2  C   -0.603081
     3  C   -0.018299
     4  C    0.258055
     5  C   -0.646130
     6  C    0.207192
     7  H    0.202108
     8  H    0.172302
     9  O   -0.683168
    10  H    0.474881
    11  H    0.199093
    12  H    0.203027
    13  Cl   0.162462
 Sum of Mulliken charges =   0.00000

 Dipole moment (field-independent basis, Debye):
    X=             -1.8841    Y=             -1.4076    Z=              0.0007  Tot=              2.3519
 Quadrupole moment (field-independent basis, Debye-Ang):
   XX=            -54.5032   YY=            -46.4919   ZZ=            -57.1218
   XY=              5.9703   XZ=             -0.0046   YZ=              0.0002

  Exact polarizability: 118.561   1.132  86.221  -0.004  -0.001  47.766
 Approx polarizability: 177.893   0.656 141.670  -0.007  -0.003  68.187

                      1                      2                      3
                      A                      A                      A
 Frequencies --    125.4106               264.5955               322.9003
 Red. masses --      8.1135                 7.7201                 2.5906
 Frc consts  --      0.0752                 0.3184                 0.1591
 IR Inten    --      0.0044                 1.6509                20.5107

                      4                      5                      6
                      A                      A                      A
 Frequencies --    328.8984               379.3034               423.2734
 Red. masses --      1.4937                14.7380                 3.0418
 Frc consts  --      0.0952                 1.2493                 0.3211
 IR Inten    --     99.7576                 1.4121                 0.7167

                      7                      8                      9
                      A                      A                      A
 Frequencies --    427.7676               509.8415               643.4219
 Red. masses --      3.8864                 2.5342                 7.5658
 Frc consts  --      0.4190                 0.3881                 1.8454
 IR Inten    --     10.0671                23.6600                41.0845

                     10                     11                     12
                      A                      A                      A
 Frequencies --    646.2728               688.4023               807.1305
 Red. masses --      7.0999                 3.9002                 1.3092
 Frc consts  --      1.7472                 1.0890                 0.5025
 IR Inten    --      1.6460                 0.5783                14.8775

                     13                     14                     15
                      A                      A                      A
 Frequencies --    836.7237               837.1584               933.8635
 Red. masses --      1.5662                 6.2405                 1.2990
 Frc consts  --      0.6460                 2.5768                 0.6674
 IR Inten    --     51.6014                 1.1938                 0.0633

                     16                     17                     18
                      A                      A                      A
 Frequencies --    961.0370              1025.6901              1105.2360
 Red. masses --      1.3251                 3.6213                 2.9755
 Frc consts  --      0.7211                 2.2446                 2.1415
 IR Inten    --      0.0437                14.2468                31.2571

                     19                     20                     21
                      A                      A                      A
 Frequencies --   1135.8004              1192.9185              1208.9284
 Red. masses --      1.3964                 1.3286                 1.1370
 Frc consts  --      1.0614                 1.1140                 0.9791
 IR Inten    --     26.1650               152.5623                23.0831

                     22                     23                     24
                      A                      A                      A
 Frequencies --   1290.4425              1329.4996              1366.6222
 Red. masses --      3.7199                 1.9483                 2.3028
 Frc consts  --      3.6497                 2.0290                 2.5339
 IR Inten    --    108.5605                 1.9111                29.0683

                     25                     26                     27
                      A                      A                      A
 Frequencies --   1467.1484              1536.1501              1638.2994
 Red. masses --      2.6923                 2.3963                 6.2901
 Frc consts  --      3.4144                 3.3316                 9.9470
 IR Inten    --     24.2977               146.4319                16.1233

                     28                     29                     30
                      A                      A                      A
 Frequencies --   1654.1675              3174.2195              3209.3151
 Red. masses --      5.7869                 1.0898                 1.0886
 Frc consts  --      9.3295                 6.4693                 6.6059
 IR Inten    --     18.6534                16.4511                 3.2033

                     31                     32                     33
                      A                      A                      A
 Frequencies --   3218.9487              3224.0506              3755.2689
 Red. masses --      1.0931                 1.0951                 1.0664
 Frc consts  --      6.6733                 6.7068                 8.8603
 IR Inten    --      3.3455                 2.4028                58.7011

 - Thermochemistry -
 -------------------
 Temperature   298.150 Kelvin.  Pressure   1.00000 Atm.
 Atom     1 has atomic number  6 and mass  12.00000

 Molecular mass:   128.00289 amu.
 Principal axes and moments of inertia in atomic units:
                           1         2         3
     Eigenvalues --   321.076161874.367852195.44398
           X            0.99998   0.00675   0.00000
           Y           -0.00675   0.99998   0.00001
           Z            0.00000  -0.00001   1.00000
 This molecule is an asymmetric top.
 Rotational symmetry number  1.
 Rotational temperatures (Kelvin)      0.26976     0.04621     0.03945
 Rotational constants (GHZ):           5.62091     0.96285     0.82204
 Zero-point vibrational energy     249234.2 (Joules/Mol)
                                   59.56841 (Kcal/Mol)
 Warning -- explicit consideration of   8 degrees of freedom as
           vibrations may cause significant error
 Vibrational temperatures:    180.44   380.69   464.58   473.21   545.73
          (Kelvin)            609.00   615.46   733.55   925.74   929.84
                              990.46  1161.28  1203.86  1204.48  1343.62
                             1382.72  1475.74  1590.19  1634.16  1716.34
                             1739.38  1856.66  1912.85  1966.26  2110.90
                             2210.17  2357.14  2379.98  4566.99  4617.48
                             4631.34  4638.68  5402.99

 Zero-point correction=                           0.094928 (Hartree/Particle)
 Thermal correction to Energy=                    0.101662
 Thermal correction to Enthalpy=                  0.102606
 Thermal correction to Gibbs Free Energy=         0.063639
 Sum of electronic and zero-point Energies=           -766.988951
 Sum of electronic and thermal Energies=              -766.982217
 Sum of electronic and thermal Enthalpies=            -766.981272
 Sum of electronic and thermal Free Energies=         -767.020240

                     E (Thermal)             CV                S
                      KCal/Mol        Cal/Mol-Kelvin    Cal/Mol-Kelvin
 Total                   63.794             25.804             82.015
 Electronic               0.000              0.000              0.000
 Translational            0.889              2.981             40.454
 Rotational               0.889              2.981             28.670
 Vibrational             62.017             19.843             12.890
 Vibration     1          0.610              1.928              3.015
 Vibration     2          0.671              1.738              1.631
 Vibration     3          0.708              1.630              1.295
 Vibration     4          0.712              1.618              1.265
 Vibration     5          0.749              1.514              1.042
 Vibration     6          0.785              1.420              0.881
 Vibration     7          0.789              1.410              0.866
 Vibration     8          0.865              1.228              0.634

 Optimization completed.
    -- Stationary point found.
 Normal termination of Gaussian 09 at Thu Sep 14 13:47:52 2023.
