 Gaussian 09, Revision D.01,
 Gaussian 09:  EM64W-G09RevD.01 13-Apr-2013

 ---------------------------------------------------------------------
 # opt freq rb3lyp/6-31+g(d) geom=connectivity empiricaldispersion=gd3
 ---------------------------------------------------------------------

 -------------------
 Title Card Required
 -------------------
 Symbolic Z-matrix:
 Charge =  0 Multiplicity = 1

 SCF Done:  E(RB3LYP) =  -767.079801555     A.U. after   14 cycles
 SCF Done:  E(RB3LYP) =  -767.084563400     A.U. after   12 cycles
 SCF Done:  E(RB3LYP) =  -767.085857722     A.U. after   12 cycles
 SCF Done:  E(RB3LYP) =  -767.086153830     A.U. after   11 cycles
 SCF Done:  E(RB3LYP) =  -767.086200036     A.U. after   11 cycles
 SCF Done:  E(RB3LYP) =  -767.086202395     A.U. after    9 cycles
 Optimization completed.
    -- Stationary point found.
 Normal termination of Gaussian 09 at Thu Sep 14 13:11:22 2023.

 ---------------------------------------------------------------------
 #N Geom=AllCheck Guess=TCheck SCRF=Check GenChk RB3LYP/6-31+G(d) Freq
 ---------------------------------------------------------------------

 Structure from the checkpoint file:  "C:\Users\vivek\Downloads\molecule_31.chk"
 -------------------
 Title Card Required
 -------------------
 Charge =  0 Multiplicity = 1

                         Standard orientation:
 ---------------------------------------------------------------------
 Center     Atomic      Atomic             Coordinates (Angstroms)
 Number     Number       Type             X           Y           Z
 ---------------------------------------------------------------------
      1          6           0        1.521873    1.109503   -0.000042
      2          6           0        0.130693    0.948125   -0.000296
      3          6           0        1.826792   -1.296262   -0.000019
      4          6           0        0.442427   -1.470691   -0.000030
      5          6           0       -0.393474   -0.354218   -0.000056
      6          1           0        0.002259   -2.462841    0.000035
      7          8           0       -0.637365    2.071960    0.000085
      8          1           0       -1.579378    1.829287    0.000052
      9          1           0        1.917462    2.120625    0.000094
     10          1           0        2.479163   -2.164309   -0.000096
     11          6           0        2.360965   -0.002400    0.000137
     12          1           0        3.437733    0.142254    0.000307
     13         17           0       -2.146705   -0.567355    0.000045
 ---------------------------------------------------------------------

 SCF Done:  E(RB3LYP) =  -767.086202395     A.U. after    1 cycles

 The electronic state is 1-A.
 Alpha  occ. eigenvalues -- -101.57298 -19.20285 -10.27713 -10.26435 -10.21762
 Alpha  occ. eigenvalues --  -10.21115 -10.20753 -10.20692  -9.48790  -7.25175
 Alpha  occ. eigenvalues --   -7.24241  -7.24207  -1.08340  -0.90011  -0.85096
 Alpha  occ. eigenvalues --   -0.76488  -0.74554  -0.63536  -0.62805  -0.56310
 Alpha  occ. eigenvalues --   -0.51715  -0.48820  -0.46012  -0.44419  -0.43721
 Alpha  occ. eigenvalues --   -0.41051  -0.39028  -0.37103  -0.36575  -0.34435
 Alpha  occ. eigenvalues --   -0.33804  -0.26437  -0.24136
 Alpha virt. eigenvalues --   -0.02950  -0.01363  -0.00934   0.00301   0.02132
 Alpha virt. eigenvalues --    0.02385   0.04206   0.05224   0.05563   0.05659
 Alpha virt. eigenvalues --    0.07858   0.08186   0.08374   0.08903   0.11381

 Mulliken charges:
               1
     1  C    0.118723
     2  C   -0.844341
     3  C   -0.075299
     4  C   -0.563598
     5  C    1.041472
     6  H    0.200937
     7  O   -0.622995
     8  H    0.465740
     9  H    0.198924
    10  H    0.184701
    11  C   -0.381343
    12  H    0.185807
    13  Cl   0.091271
 Sum of Mulliken charges =   0.00000

 Dipole moment (field-independent basis, Debye):
    X=              0.7006    Y=             -0.7475    Z=              0.0000  Tot=              1.0245
 Quadrupole moment (field-independent basis, Debye-Ang):
   XX=            -47.8872   YY=            -52.6370   ZZ=            -57.1640
   XY=             -1.8827   XZ=              0.0006   YZ=              0.0000

  Exact polarizability: 111.024  -0.969  91.889   0.002  -0.001  47.978
 Approx polarizability: 170.029  -2.353 151.084   0.005  -0.004  68.600

                      1                      2                      3
                      A                      A                      A
 Frequencies --    156.2412               253.5743               263.1878
 Red. masses --      5.0529                 8.8234                 5.4414
 Frc consts  --      0.0727                 0.3343                 0.2221
 IR Inten    --      0.0293                 2.6697                 1.0702

                      4                      5                      6
                      A                      A                      A
 Frequencies --    376.9970               407.7119               446.7293
 Red. masses --      9.2385                 1.0964                 3.2274
 Frc consts  --      0.7736                 0.1074                 0.3795
 IR Inten    --      2.4208               117.7804                 0.3762

                      7                      8                      9
                      A                      A                      A
 Frequencies --    492.5819               548.4555               562.8072
 Red. masses --      4.8778                 3.7819                 7.9115
 Frc consts  --      0.6973                 0.6703                 1.4765
 IR Inten    --     12.3460                 1.3343                 4.4965

                     10                     11                     12
                      A                      A                      A
 Frequencies --    684.0189               699.5826               760.1747
 Red. masses --      6.8394                 4.2439                 1.2437
 Frc consts  --      1.8854                 1.2238                 0.4235
 IR Inten    --     24.8916                 0.2427                74.4122

                     13                     14                     15
                      A                      A                      A
 Frequencies --    843.3408               859.1287               943.6720
 Red. masses --      6.0049                 1.3891                 1.3490
 Frc consts  --      2.5163                 0.6041                 0.7078
 IR Inten    --     12.2608                 1.7269                 2.5936

                     16                     17                     18
                      A                      A                      A
 Frequencies --    983.5636              1044.4557              1068.6849
 Red. masses --      1.2768                 5.0910                 2.1665
 Frc consts  --      0.7277                 3.2722                 1.4578
 IR Inten    --      0.0464                48.9331                 9.3805

                     19                     20                     21
                      A                      A                      A
 Frequencies --   1148.6899              1196.4320              1214.7575
 Red. masses --      1.6704                 1.1003                 1.3497
 Frc consts  --      1.2986                 0.9280                 1.1734
 IR Inten    --      5.0179                 2.1658               136.5275

                     22                     23                     24
                      A                      A                      A
 Frequencies --   1283.6492              1334.7775              1374.0063
 Red. masses --      2.4161                 2.5033                 2.3082
 Frc consts  --      2.3456                 2.6277                 2.5674
 IR Inten    --     65.2167                24.2771                23.7675

                     25                     26                     27
                      A                      A                      A
 Frequencies --   1496.9790              1522.6107              1632.8768
 Red. masses --      2.3258                 2.6950                 5.7772
 Frc consts  --      3.0708                 3.6811                 9.0755
 IR Inten    --      3.8027               129.2644                19.7011

                     28                     29                     30
                      A                      A                      A
 Frequencies --   1646.0396              3192.5886              3205.6625
 Red. masses --      6.0999                 1.0864                 1.0900
 Frc consts  --      9.7376                 6.5239                 6.5994
 IR Inten    --     34.5579                 2.1990                 9.5104

                     31                     32                     33
                      A                      A                      A
 Frequencies --   3215.4662              3221.3048              3702.5447
 Red. masses --      1.0934                 1.0970                 1.0655
 Frc consts  --      6.6607                 6.7066                 8.6061
 IR Inten    --      8.7080                 6.2914                76.2817

 - Thermochemistry -
 -------------------
 Temperature   298.150 Kelvin.  Pressure   1.00000 Atm.
 Atom     1 has atomic number  6 and mass  12.00000

 Molecular mass:   128.00289 amu.
 Principal axes and moments of inertia in atomic units:
                           1         2         3
     Eigenvalues --   613.211441181.035671794.24710
           X            0.99953  -0.03059   0.00000
           Y            0.03059   0.99953   0.00000
           Z            0.00000   0.00000   1.00000
 This molecule is an asymmetric top.
 Rotational symmetry number  1.
 Warning -- assumption of classical behavior for rotation
           may cause significant error
 Rotational temperatures (Kelvin)      0.14125     0.07334     0.04827
 Rotational constants (GHZ):           2.94310     1.52810     1.00585
 Zero-point vibrational energy     249919.6 (Joules/Mol)
                                   59.73222 (Kcal/Mol)
 Warning -- explicit consideration of   9 degrees of freedom as
           vibrations may cause significant error
 Vibrational temperatures:    224.80   364.84   378.67   542.41   586.61
          (Kelvin)            642.74   708.71   789.10   809.75   984.15
                             1006.54  1093.72  1213.38  1236.09  1357.73
                             1415.13  1502.74  1537.60  1652.71  1721.40
                             1747.76  1846.88  1920.44  1976.89  2153.82
                             2190.69  2349.34  2368.28  4593.42  4612.23
                             4626.33  4634.73  5327.13

 Zero-point correction=                           0.095189 (Hartree/Particle)
 Thermal correction to Energy=                    0.101802
 Thermal correction to Enthalpy=                  0.102746
 Thermal correction to Gibbs Free Energy=         0.064069
 Sum of electronic and zero-point Energies=           -766.991013
 Sum of electronic and thermal Energies=              -766.984400
 Sum of electronic and thermal Enthalpies=            -766.983456
 Sum of electronic and thermal Free Energies=         -767.022133

                     E (Thermal)             CV                S
                      KCal/Mol        Cal/Mol-Kelvin    Cal/Mol-Kelvin
 Total                   63.882             25.527             81.403
 Electronic               0.000              0.000              0.000
 Translational            0.889              2.981             40.454
 Rotational               0.889              2.981             28.654
 Vibrational             62.104             19.565             12.295
 Vibration     1          0.620              1.896              2.595
 Vibration     2          0.665              1.757              1.706
 Vibration     3          0.670              1.740              1.641
 Vibration     4          0.748              1.519              1.051
 Vibration     5          0.772              1.453              0.935
 Vibration     6          0.806              1.368              0.806
 Vibration     7          0.848              1.266              0.677
 Vibration     8          0.904              1.143              0.547
 Vibration     9          0.919              1.112              0.518

 Optimization completed.
    -- Stationary point found.
 Normal termination of Gaussian 09 at Thu Sep 14 13:13:36 2023.
