 Gaussian 09, Revision D.01,
 Gaussian 09:  EM64W-G09RevD.01 13-Apr-2013

 ---------------------------------------------------------------------
 # opt freq rb3lyp/6-31+g(d) geom=connectivity empiricaldispersion=gd3
 ---------------------------------------------------------------------

 -------------------
 Title Card Required
 -------------------
 Symbolic Z-matrix:
 Charge =  0 Multiplicity = 1

 SCF Done:  E(RB3LYP) =  -461.128079021     A.U. after   14 cycles
 SCF Done:  E(RB3LYP) =  -461.135160505     A.U. after   13 cycles
 SCF Done:  E(RB3LYP) =  -461.135433489     A.U. after   12 cycles
 SCF Done:  E(RB3LYP) =  -461.135467497     A.U. after   11 cycles
 SCF Done:  E(RB3LYP) =  -461.135544072     A.U. after   12 cycles
 SCF Done:  E(RB3LYP) =  -461.101666555     A.U. after   15 cycles
 SCF Done:  E(RB3LYP) =  -461.135576481     A.U. after   10 cycles
 SCF Done:  E(RB3LYP) =  -461.137044289     A.U. after   14 cycles
 SCF Done:  E(RB3LYP) =  -461.140002919     A.U. after   15 cycles
 SCF Done:  E(RB3LYP) =  -461.140494839     A.U. after   13 cycles
 SCF Done:  E(RB3LYP) =  -461.140509166     A.U. after   12 cycles
 SCF Done:  E(RB3LYP) =  -461.140562220     A.U. after   11 cycles
 SCF Done:  E(RB3LYP) =  -461.140563049     A.U. after   10 cycles
 SCF Done:  E(RB3LYP) =  -461.140563326     A.U. after    9 cycles
 Optimization completed.
    -- Stationary point found.
 Normal termination of Gaussian 09 at Thu Sep 14 14:10:17 2023.

 ---------------------------------------------------------------------
 #N Geom=AllCheck Guess=TCheck SCRF=Check GenChk RB3LYP/6-31+G(d) Freq
 ---------------------------------------------------------------------

 Structure from the checkpoint file:  "C:\Users\vivek\Downloads\molecule_39.chk"
 -------------------
 Title Card Required
 -------------------
 Charge =  0 Multiplicity = 1

                         Standard orientation:
 ---------------------------------------------------------------------
 Center     Atomic      Atomic             Coordinates (Angstroms)
 Number     Number       Type             X           Y           Z
 ---------------------------------------------------------------------
      1          6           0       -1.880012    1.169100   -0.000037
      2          6           0       -0.593637    1.661681   -0.000004
      3          6           0        0.527451    0.789204    0.000018
      4          6           0        0.291151   -0.626662    0.000006
      5          6           0       -1.041871   -1.111758    0.000006
      6          6           0       -2.104303   -0.232733   -0.000044
      7          1           0        2.035395    2.344424    0.000062
      8          1           0       -2.729311    1.850510   -0.000087
      9          1           0       -0.426074    2.736408   -0.000019
     10          6           0        1.865456    1.269621    0.000033
     11          6           0        1.413330   -1.502821    0.000020
     12          1           0       -1.235962   -2.180694    0.000033
     13          6           0        2.698876   -1.005379   -0.000026
     14          6           0        2.930615    0.394642   -0.000005
     15          1           0        1.239198   -2.576550    0.000041
     16          1           0        3.544380   -1.688768   -0.000070
     17          1           0        3.949503    0.772798   -0.000010
     18          8           0       -3.373872   -0.755824   -0.000025
     19          1           0       -4.028491   -0.040904    0.000449
 ---------------------------------------------------------------------

 SCF Done:  E(RB3LYP) =  -461.140563326     A.U. after    1 cycles

 The electronic state is 1-A.
 Alpha  occ. eigenvalues --  -19.19519 -10.26179 -10.20855 -10.20713 -10.20648
 Alpha  occ. eigenvalues --  -10.20435 -10.19896 -10.19833 -10.19620 -10.19601
 Alpha  occ. eigenvalues --  -10.19229  -1.07144  -0.87874  -0.82516  -0.78037
 Alpha  occ. eigenvalues --   -0.74492  -0.72796  -0.63700  -0.62835  -0.60420
 Alpha  occ. eigenvalues --   -0.56094  -0.52236  -0.50721  -0.47863  -0.45682
 Alpha  occ. eigenvalues --   -0.43475  -0.43111  -0.42146  -0.41997  -0.40319
 Alpha  occ. eigenvalues --   -0.37901  -0.37041  -0.35471  -0.33860  -0.31648
 Alpha  occ. eigenvalues --   -0.28794  -0.24260  -0.21467
 Alpha virt. eigenvalues --   -0.04815  -0.01473  -0.00813   0.00855   0.00883
 Alpha virt. eigenvalues --    0.01519   0.02701   0.03816   0.05233   0.05587
 Alpha virt. eigenvalues --    0.05802   0.06374   0.06941   0.07586   0.09253

 Mulliken charges:
               1
     1  C   -0.055643
     2  C   -0.044649
     3  C   -0.452789
     4  C   -0.325269
     5  C   -0.110630
     6  C    0.270197
     7  H    0.180421
     8  H    0.167711
     9  H    0.185755
    10  C    0.142809
    11  C    0.234829
    12  H    0.192857
    13  C   -0.351363
    14  C   -0.370408
    15  H    0.182652
    16  H    0.179516
    17  H    0.179026
    18  O   -0.685070
    19  H    0.480048
 Sum of Mulliken charges =   0.00000

 Dipole moment (field-independent basis, Debye):
    X=             -0.5214    Y=              1.5480    Z=              0.0007  Tot=              1.6334
 Quadrupole moment (field-independent basis, Debye-Ang):
   XX=            -54.3008   YY=            -58.8510   ZZ=            -70.0654
   XY=             -6.2186   XZ=             -0.0036   YZ=              0.0000

  Exact polarizability: 182.008  -6.073 124.348  -0.002   0.000  63.043
 Approx polarizability: 299.856  -9.487 215.397   0.000   0.001  93.567

                      1                      2                      3
                      A                      A                      A
 Frequencies --    123.1015               182.5239               292.2250
 Red. masses --      5.3879                 3.6498                 4.9572
 Frc consts  --      0.0481                 0.0716                 0.2494
 IR Inten    --      0.8393                 3.9433                 4.6969

                      4                      5                      6
                      A                      A                      A
 Frequencies --    293.5298               304.5073               408.5044
 Red. masses --      3.3096                 1.2331                 3.2673
 Frc consts  --      0.1680                 0.0674                 0.3212
 IR Inten    --     34.1191                80.5999                 0.2895

                      7                      8                      9
                      A                      A                      A
 Frequencies --    429.5195               470.5022               481.5306
 Red. masses --      6.1579                 4.6944                 2.5068
 Frc consts  --      0.6693                 0.6123                 0.3425
 IR Inten    --      4.9157                 0.8122                18.1833

                     10                     11                     12
                      A                      A                      A
 Frequencies --    532.3821               539.9913               630.8439
 Red. masses --      6.2028                 3.4267                 3.0739
 Frc consts  --      1.0358                 0.5887                 0.7208
 IR Inten    --      0.1110                 0.4374                 1.3536

                     13                     14                     15
                      A                      A                      A
 Frequencies --    635.0718               724.7238               749.6970
 Red. masses --      6.7250                 6.4936                 3.4010
 Frc consts  --      1.5980                 2.0095                 1.1262
 IR Inten    --      7.6089                 6.7980                 1.4838

                     16                     17                     18
                      A                      A                      A
 Frequencies --    757.6001               780.5304               809.2757
 Red. masses --      1.3114                 4.8169                 1.4315
 Frc consts  --      0.4435                 1.7290                 0.5524
 IR Inten    --     30.5945                 0.1667                52.7078

                     19                     20                     21
                      A                      A                      A
 Frequencies --    861.1022               890.2656               915.1687
 Red. masses --      1.3928                 1.5519                 5.1282
 Frc consts  --      0.6085                 0.7247                 2.5305
 IR Inten    --     22.5997                17.3982                20.4247

                     22                     23                     24
                      A                      A                      A
 Frequencies --    946.6242               967.6203               977.7325
 Red. masses --      1.2928                 1.3764                 3.8994
 Frc consts  --      0.6826                 0.7593                 2.1963
 IR Inten    --      0.0384                 4.8756                23.3807

                     25                     26                     27
                      A                      A                      A
 Frequencies --    992.4122              1048.5653              1155.5205
 Red. masses --      1.2812                 2.3350                 1.7979
 Frc consts  --      0.7435                 1.5126                 1.4144
 IR Inten    --      0.0342                 1.6294                16.5940

                     28                     29                     30
                      A                      A                      A
 Frequencies --   1183.4927              1191.6083              1203.5610
 Red. masses --      1.3116                 1.2681                 1.2095
 Frc consts  --      1.0824                 1.0609                 1.0323
 IR Inten    --     23.4918                40.9814                69.7548

                     31                     32                     33
                      A                      A                      A
 Frequencies --   1218.6208              1255.4602              1297.0688
 Red. masses --      1.3866                 2.3305                 1.8586
 Frc consts  --      1.2132                 2.1642                 1.8423
 IR Inten    --     22.9785                36.3285                34.9226

                     34                     35                     36
                      A                      A                      A
 Frequencies --   1305.8604              1409.7486              1416.7122
 Red. masses --      2.2574                 5.3370                 2.0104
 Frc consts  --      2.2681                 6.2493                 2.3774
 IR Inten    --    116.6146                 0.9320                22.6297

                     37                     38                     39
                      A                      A                      A
 Frequencies --   1423.5702              1492.8710              1516.3575
 Red. masses --      2.9888                 2.3410                 2.3625
 Frc consts  --      3.5687                 3.0740                 3.2005
 IR Inten    --      0.9563                20.8961                20.2130

                     40                     41                     42
                      A                      A                      A
 Frequencies --   1560.8533              1622.9940              1658.9057
 Red. masses --      3.4154                 6.6700                 5.1135
 Frc consts  --      4.9025                10.3517                 8.2911
 IR Inten    --     65.5499                13.4328                12.3576

                     43                     44                     45
                      A                      A                      A
 Frequencies --   1687.5609              3163.2183              3171.9137
 Red. masses --      6.0539                 1.0877                 1.0862
 Frc consts  --     10.1579                 6.4122                 6.4390
 IR Inten    --     91.1132                14.6429                 5.0515

                     46                     47                     48
                      A                      A                      A
 Frequencies --   3177.0456              3187.9224              3191.4655
 Red. masses --      1.0882                 1.0939                 1.0933
 Frc consts  --      6.4717                 6.5499                 6.5610
 IR Inten    --      0.2977                15.0855                37.8928

                     49                     50                     51
                      A                      A                      A
 Frequencies --   3201.0277              3204.9777              3758.8543
 Red. masses --      1.0911                 1.0967                 1.0664
 Frc consts  --      6.5872                 6.6370                 8.8777
 IR Inten    --     12.8228                23.3886                68.3123

 - Thermochemistry -
 -------------------
 Temperature   298.150 Kelvin.  Pressure   1.00000 Atm.
 Atom     1 has atomic number  6 and mass  12.00000

 Molecular mass:   144.05751 amu.
 Principal axes and moments of inertia in atomic units:
                           1         2         3
     Eigenvalues --   636.448472196.675582833.12405
           X            0.99994  -0.01062   0.00000
           Y            0.01062   0.99994   0.00000
           Z            0.00000   0.00000   1.00000
 This molecule is an asymmetric top.
 Rotational symmetry number  1.
 Warning -- assumption of classical behavior for rotation
           may cause significant error
 Rotational temperatures (Kelvin)      0.13609     0.03943     0.03057
 Rotational constants (GHZ):           2.83564     0.82158     0.63701
 Zero-point vibrational energy     397176.6 (Joules/Mol)
                                   94.92749 (Kcal/Mol)
 Warning -- explicit consideration of  11 degrees of freedom as
           vibrations may cause significant error
 Vibrational temperatures:    177.12   262.61   420.45   422.32   438.12
          (Kelvin)            587.75   617.98   676.95   692.81   765.98
                              776.93   907.64   913.73  1042.71  1078.65
                             1090.02  1123.01  1164.37  1238.93  1280.89
                             1316.72  1361.98  1392.19  1406.74  1427.86
                             1508.65  1662.53  1702.78  1714.46  1731.65
                             1753.32  1806.32  1866.19  1878.84  2028.31
                             2038.33  2048.20  2147.91  2181.70  2245.72
                             2335.12  2386.79  2428.02  4551.16  4563.67
                             4571.05  4586.70  4591.80  4605.56  4611.24
                             5408.15

 Zero-point correction=                           0.151277 (Hartree/Particle)
 Thermal correction to Energy=                    0.159392
 Thermal correction to Enthalpy=                  0.160336
 Thermal correction to Gibbs Free Energy=         0.118552
 Sum of electronic and zero-point Energies=           -460.989287
 Sum of electronic and thermal Energies=              -460.981172
 Sum of electronic and thermal Enthalpies=            -460.980228
 Sum of electronic and thermal Free Energies=         -461.022012

                     E (Thermal)             CV                S
                      KCal/Mol        Cal/Mol-Kelvin    Cal/Mol-Kelvin
 Total                  100.020             33.764             87.942
 Electronic               0.000              0.000              0.000
 Translational            0.889              2.981             40.806
 Rotational               0.889              2.981             29.761
 Vibrational             98.242             27.803             17.374
 Vibration     1          0.610              1.930              3.051
 Vibration     2          0.630              1.864              2.302
 Vibration     3          0.688              1.688              1.461
 Vibration     4          0.688              1.686              1.454
 Vibration     5          0.695              1.665              1.392
 Vibration     6          0.773              1.452              0.932
 Vibration     7          0.791              1.406              0.860
 Vibration     8          0.828              1.315              0.736
 Vibration     9          0.838              1.291              0.706
 Vibration    10          0.887              1.178              0.582
 Vibration    11          0.895              1.162              0.565

 Optimization completed.
    -- Stationary point found.
 Normal termination of Gaussian 09 at Thu Sep 14 14:15:52 2023.
