 Gaussian 09, Revision D.01,
 Gaussian 09:  EM64W-G09RevD.01 13-Apr-2013

 --------------------------------------------------------------------
 # opt freq b3lyp/6-31+g(d) geom=connectivity empiricaldispersion=gd3
 --------------------------------------------------------------------

 -------------------
 Title Card Required
 -------------------
 Symbolic Z-matrix:
 Charge =  0 Multiplicity = 2

 SCF Done:  E(UB3LYP) =  -422.208334210     A.U. after   29 cycles
 SCF Done:  E(UB3LYP) =  -422.235361739     A.U. after   22 cycles
 SCF Done:  E(UB3LYP) =  -422.237051919     A.U. after   21 cycles
 SCF Done:  E(UB3LYP) =  -422.237186001     A.U. after   18 cycles
 SCF Done:  E(UB3LYP) =  -422.237197482     A.U. after   17 cycles
 SCF Done:  E(UB3LYP) =  -422.237198675     A.U. after   14 cycles
 SCF Done:  E(UB3LYP) =  -422.237198825     A.U. after   14 cycles
 SCF Done:  E(UB3LYP) =  -422.237198981     A.U. after   15 cycles
 SCF Done:  E(UB3LYP) =  -422.237199128     A.U. after   14 cycles
 Optimization completed.
    -- Stationary point found.
 Normal termination of Gaussian 09 at Thu Aug 24 14:17:29 2023.

 ---------------------------------------------------------------------
 #N Geom=AllCheck Guess=TCheck SCRF=Check GenChk UB3LYP/6-31+G(d) Freq
 ---------------------------------------------------------------------

 Structure from the checkpoint file:  "C:\Users\123\Desktop\ML project\molecule_2.chk"
 -------------------
 Title Card Required
 -------------------
 Charge =  0 Multiplicity = 2

                         Standard orientation:
 ---------------------------------------------------------------------
 Center     Atomic      Atomic             Coordinates (Angstroms)
 Number     Number       Type             X           Y           Z
 ---------------------------------------------------------------------
      1          6           0       -0.502767   -1.223777   -0.229736
      2          6           0        0.873129   -1.226828   -0.080491
      3          6           0        1.598603    0.000000    0.001638
      4          6           0        0.873128    1.226827   -0.080494
      5          6           0       -0.502768    1.223773   -0.229739
      6          6           0       -1.193775   -0.000002   -0.300922
      7          1           0       -1.066419   -2.148847   -0.305046
      8          1           0        1.425373   -2.159727   -0.026267
      9          1           0        1.425371    2.159726   -0.026273
     10          1           0       -1.066421    2.148843   -0.305052
     11          6           0        2.985431   -0.000001    0.153893
     12          6           0        4.256922    0.000005    0.317411
     13          8           0       -2.547547   -0.000003   -0.490274
     14          6           0       -3.336903    0.000005    0.711223
     15          1           0       -3.132292    0.896757    1.310272
     16          1           0       -4.378947    0.000004    0.387586
     17          1           0       -3.132293   -0.896738    1.310284
 ---------------------------------------------------------------------

 SCF Done:  E(UB3LYP) =  -422.237199128     A.U. after    1 cycles

 The electronic state is 2-A.
 Alpha  occ. eigenvalues --  -19.20834 -10.29977 -10.27018 -10.25556 -10.24401
 Alpha  occ. eigenvalues --  -10.24401 -10.23399 -10.23399 -10.20550 -10.20110
 Alpha  occ. eigenvalues --   -1.09533  -0.90192  -0.81614  -0.79618  -0.75400
 Alpha  occ. eigenvalues --   -0.71749  -0.65736  -0.64252  -0.57568  -0.54893
 Alpha  occ. eigenvalues --   -0.52094  -0.49784  -0.48258  -0.47062  -0.46544
 Alpha  occ. eigenvalues --   -0.44035  -0.41815  -0.39780  -0.38752  -0.33180
 Alpha  occ. eigenvalues --   -0.31378  -0.30212  -0.27006  -0.26984  -0.25398
 Alpha virt. eigenvalues --   -0.07096  -0.05229  -0.01072   0.00807   0.00955
 Alpha virt. eigenvalues --    0.01829   0.02702   0.03536   0.03622   0.04087
 Alpha virt. eigenvalues --    0.04636   0.05414   0.06579   0.06936   0.07961

  Beta  occ. eigenvalues --  -19.20784 -10.29690 -10.26988 -10.25598 -10.24204
  Beta  occ. eigenvalues --  -10.24204 -10.23491 -10.23491 -10.20086 -10.19620
  Beta  occ. eigenvalues --   -1.09353  -0.89849  -0.81019  -0.79450  -0.74444
  Beta  occ. eigenvalues --   -0.70397  -0.65490  -0.63737  -0.57368  -0.54670
  Beta  occ. eigenvalues --   -0.51991  -0.49362  -0.48087  -0.46997  -0.46517
  Beta  occ. eigenvalues --   -0.43818  -0.40960  -0.39677  -0.38170  -0.31317
  Beta  occ. eigenvalues --   -0.30600  -0.29729  -0.26215  -0.25951
  Beta virt. eigenvalues --   -0.17220  -0.05089  -0.04511  -0.01052   0.00845
  Beta virt. eigenvalues --    0.00961   0.01885   0.02982   0.03826   0.04000
  Beta virt. eigenvalues --    0.04168   0.05146   0.05844   0.06576   0.07223

 Mulliken charges and spin densities:
               1          2
     1  C    0.241240  -0.094376
     2  C   -0.334068   0.141412
     3  C   -0.360113  -0.037686
     4  C   -0.334065   0.141412
     5  C    0.241236  -0.094376
     6  C   -0.175084   0.220903
     7  H    0.205973   0.002933
     8  H    0.219334  -0.007032
     9  H    0.219334  -0.007032
    10  H    0.205973   0.002933
    11  C    1.017192   0.339200
    12  C   -1.020122   0.379860
    13  O   -0.384065   0.008204
    14  C   -0.364247   0.003672
    15  H    0.202693  -0.000210
    16  H    0.216096   0.000393
    17  H    0.202693  -0.000210
 Sum of Mulliken charges =   0.00000   1.00000

 Dipole moment (field-independent basis, Debye):
    X=             -7.4903    Y=              0.0000    Z=              0.6852  Tot=              7.5215
 Quadrupole moment (field-independent basis, Debye-Ang):
   XX=            -86.2479   YY=            -52.2866   ZZ=            -61.1948
   XY=             -0.0001   XZ=             -7.6184   YZ=              0.0000

  Exact polarizability: 210.444   0.000  97.632   6.470   0.000  68.150
 Approx polarizability: 316.012   0.000 154.668  22.061   0.000  94.830

 ******    1 imaginary frequencies (negative Signs) ******

                      1                      2                      3
                      A                      A                      A
 Frequencies --    -94.9335                63.1495               127.6368
 Red. masses --      3.1137                 7.0945                 5.7143
 Frc consts  --      0.0165                 0.0167                 0.0548
 IR Inten    --      2.6974                20.1717                18.8637

                      4                      5                      6
                      A                      A                      A
 Frequencies --    132.3204               173.0771               227.0192
 Red. masses --      6.1797                 1.0940                 4.6471
 Frc consts  --      0.0637                 0.0193                 0.1411
 IR Inten    --      6.8524                 0.7414                12.3147

                      7                      8                      9
                      A                      A                      A
 Frequencies --    360.7596               386.1924               399.7443
 Red. masses --      5.7020                 4.0092                 4.2831
 Frc consts  --      0.4372                 0.3523                 0.4032
 IR Inten    --      4.6321                 3.5572                 5.3714

                     10                     11                     12
                      A                      A                      A
 Frequencies --    429.2912               503.6448               560.0132
 Red. masses --      6.7159                 6.3235                 2.4290
 Frc consts  --      0.7292                 0.9451                 0.4488
 IR Inten    --     14.6639                 0.4429                36.9727

                     13                     14                     15
                      A                      A                      A
 Frequencies --    642.8410               695.2355               748.4998
 Red. masses --      7.2365                 5.3655                 3.9440
 Frc consts  --      1.7619                 1.5280                 1.3019
 IR Inten    --      0.2346                 6.8262                 2.6331

                     16                     17                     18
                      A                      A                      A
 Frequencies --    826.1373               828.5943               872.2637
 Red. masses --      5.5833                 1.2368                 1.8195
 Frc consts  --      2.2451                 0.5003                 0.8156
 IR Inten    --      0.0792                 0.0140                39.8211

                     19                     20                     21
                      A                      A                      A
 Frequencies --    983.8662               987.7487              1020.6966
 Red. masses --      1.3308                 1.3478                 2.9767
 Frc consts  --      0.7590                 0.7748                 1.8272
 IR Inten    --      1.8217                 0.0028                 5.9336

                     22                     23                     24
                      A                      A                      A
 Frequencies --   1026.3812              1130.7328              1174.7001
 Red. masses --      5.3258                 1.3588                 1.2421
 Frc consts  --      3.3056                 1.0236                 1.0099
 IR Inten    --    105.3965                 7.6507                 1.5360

                     25                     26                     27
                      A                      A                      A
 Frequencies --   1177.7394              1203.5346              1221.6998
 Red. masses --      1.5632                 1.4131                 2.4972
 Frc consts  --      1.2775                 1.2060                 2.1960
 IR Inten    --    185.8324                 2.5894                 3.9668

                     28                     29                     30
                      A                      A                      A
 Frequencies --   1284.7840              1318.8576              1320.8659
 Red. masses --      3.6498                 1.4286                 5.3189
 Frc consts  --      3.5496                 1.4641                 5.4675
 IR Inten    --    351.4967                 0.0886                12.5515

                     31                     32                     33
                      A                      A                      A
 Frequencies --   1452.6020              1486.2749              1509.2783
 Red. masses --      3.2936                 1.2385                 1.0524
 Frc consts  --      4.0946                 1.6119                 1.4124
 IR Inten    --      7.2087                20.8676                10.8600

                     34                     35                     36
                      A                      A                      A
 Frequencies --   1520.4569              1523.2909              1555.2041
 Red. masses --      1.0828                 1.9334                 5.4624
 Frc consts  --      1.4748                 2.6433                 7.7841
 IR Inten    --     39.6462                20.0910                 3.4172

                     37                     38                     39
                      A                      A                      A
 Frequencies --   1624.5339              1995.0193              3028.7739
 Red. masses --      5.1015                11.9676                 1.0328
 Frc consts  --      7.9324                28.0640                 5.5821
 IR Inten    --    305.0291               106.8720                58.6348

                     40                     41                     42
                      A                      A                      A
 Frequencies --   3094.1653              3166.1162              3207.6170
 Red. masses --      1.1075                 1.1015                 1.0891
 Frc consts  --      6.2471                 6.5057                 6.6022
 IR Inten    --     29.6596                25.6924                 5.4473

                     43                     44                     45
                      A                      A                      A
 Frequencies --   3208.1768              3223.8616              3225.5465
 Red. masses --      1.0891                 1.0950                 1.0960
 Frc consts  --      6.6042                 6.7053                 6.7185
 IR Inten    --      0.5561                 3.1733                 1.6962

 - Thermochemistry -
 -------------------
 Temperature   298.150 Kelvin.  Pressure   1.00000 Atm.
 Atom     1 has atomic number  6 and mass  12.00000

 Molecular mass:   131.04969 amu.
 Principal axes and moments of inertia in atomic units:
                           1         2         3
     Eigenvalues --   392.594582486.854022754.16073
           X            0.99990   0.00000  -0.01425
           Y            0.00000   1.00000   0.00000
           Z            0.01425   0.00000   0.99990
 This molecule is an asymmetric top.
 Rotational symmetry number  1.
 Rotational temperatures (Kelvin)      0.22062     0.03483     0.03145
 Rotational constants (GHZ):           4.59696     0.72571     0.65528
    1 imaginary frequencies ignored.
 Zero-point vibrational energy     338835.9 (Joules/Mol)
                                   80.98373 (Kcal/Mol)
 Warning -- explicit consideration of  11 degrees of freedom as
           vibrations may cause significant error
 Vibrational temperatures:     90.86   183.64   190.38   249.02   326.63
          (Kelvin)            519.05   555.64   575.14   617.65   724.63
                              805.73   924.90  1000.29  1076.92  1188.63
                             1192.16  1254.99  1415.56  1421.15  1468.55
                             1476.73  1626.87  1690.13  1694.50  1731.62
                             1757.75  1848.52  1897.54  1900.43  2089.97
                             2138.42  2171.51  2187.60  2191.67  2237.59
                             2337.34  2870.38  4357.72  4451.81  4555.33
                             4615.04  4615.85  4638.41  4640.84

 Zero-point correction=                           0.129056 (Hartree/Particle)
 Thermal correction to Energy=                    0.137696
 Thermal correction to Enthalpy=                  0.138640
 Thermal correction to Gibbs Free Energy=         0.094364
 Sum of electronic and zero-point Energies=           -422.108143
 Sum of electronic and thermal Energies=              -422.099503
 Sum of electronic and thermal Enthalpies=            -422.098559
 Sum of electronic and thermal Free Energies=         -422.142836

                     E (Thermal)             CV                S
                      KCal/Mol        Cal/Mol-Kelvin    Cal/Mol-Kelvin
 Total                   86.405             31.532             93.188
 Electronic               0.000              0.000              1.377
 Translational            0.889              2.981             40.524
 Rotational               0.889              2.981             29.376
 Vibrational             84.628             25.571             21.910
 Vibration     1          0.597              1.972              4.356
 Vibration     2          0.611              1.926              2.981
 Vibration     3          0.612              1.921              2.912
 Vibration     4          0.627              1.876              2.402
 Vibration     5          0.651              1.800              1.902
 Vibration     6          0.735              1.553              1.119
 Vibration     7          0.755              1.500              1.015
 Vibration     8          0.766              1.471              0.964
 Vibration     9          0.791              1.406              0.861
 Vibration    10          0.859              1.242              0.649
 Vibration    11          0.916              1.118              0.524

 Optimization completed.
    -- Stationary point found.
 Normal termination of Gaussian 09 at Thu Aug 24 15:00:36 2023.
