 Gaussian 09, Revision D.01,
 Gaussian 09:  EM64W-G09RevD.01 13-Apr-2013

 ---------------------------------------------------------------------
 # opt freq rb3lyp/6-31+g(d) geom=connectivity empiricaldispersion=gd3
 ---------------------------------------------------------------------

 -------------------
 Title Card Required
 -------------------
 Symbolic Z-matrix:
 Charge =  0 Multiplicity = 1

 SCF Done:  E(RB3LYP) =  -461.132723310     A.U. after   15 cycles
 SCF Done:  E(RB3LYP) =  -461.141187148     A.U. after   13 cycles
 SCF Done:  E(RB3LYP) =  -461.141571669     A.U. after   12 cycles
 SCF Done:  E(RB3LYP) =  -461.141588662     A.U. after   11 cycles
 SCF Done:  E(RB3LYP) =  -461.141590220     A.U. after   10 cycles
 Optimization completed.
    -- Stationary point found.
 Normal termination of Gaussian 09 at Thu Sep 14 13:55:05 2023.

 ---------------------------------------------------------------------
 #N Geom=AllCheck Guess=TCheck SCRF=Check GenChk RB3LYP/6-31+G(d) Freq
 ---------------------------------------------------------------------

 Structure from the checkpoint file:  "C:\Users\vivek\Downloads\molecule_38.chk"
 -------------------
 Title Card Required
 -------------------
 Charge =  0 Multiplicity = 1

                         Standard orientation:
 ---------------------------------------------------------------------
 Center     Atomic      Atomic             Coordinates (Angstroms)
 Number     Number       Type             X           Y           Z
 ---------------------------------------------------------------------
      1          6           0       -2.373825   -1.073412    0.000000
      2          6           0       -1.042094   -1.433511    0.000000
      3          6           0       -0.027674   -0.439527    0.000000
      4          6           0       -0.394804    0.946217    0.000000
      5          6           0       -1.777914    1.277281    0.000000
      6          6           0       -2.744929    0.294372    0.000000
      7          1           0       -3.143652   -1.840659    0.000000
      8          1           0       -0.751284   -2.478682    0.000000
      9          6           0        1.361157   -0.770647    0.000000
     10          6           0        0.620158    1.943480    0.000000
     11          1           0       -2.061625    2.327513    0.000000
     12          6           0        1.948707    1.580877    0.000000
     13          6           0        2.327091    0.215907    0.000000
     14          1           0        0.331795    2.991627    0.000000
     15          1           0        2.724333    2.342161    0.000000
     16          1           0        3.381557   -0.054838    0.000000
     17          1           0       -3.797338    0.566815    0.000000
     18          8           0        1.664318   -2.109095    0.000000
     19          1           0        2.626429   -2.227404    0.000001
 ---------------------------------------------------------------------

 SCF Done:  E(RB3LYP) =  -461.141590220     A.U. after    1 cycles

 The electronic state is 1-A.
 Alpha  occ. eigenvalues --  -19.19755 -10.26250 -10.20696 -10.20474 -10.20179
 Alpha  occ. eigenvalues --  -10.19885 -10.19817 -10.19707 -10.19632 -10.19551
 Alpha  occ. eigenvalues --  -10.19239  -1.07441  -0.87626  -0.82514  -0.77430
 Alpha  occ. eigenvalues --   -0.74893  -0.72184  -0.64076  -0.62499  -0.60587
 Alpha  occ. eigenvalues --   -0.54953  -0.52274  -0.50774  -0.48467  -0.45514
 Alpha  occ. eigenvalues --   -0.43451  -0.43010  -0.42364  -0.41199  -0.39592
 Alpha  occ. eigenvalues --   -0.37887  -0.37072  -0.34643  -0.34023  -0.32539
 Alpha  occ. eigenvalues --   -0.27304  -0.25143  -0.21140
 Alpha virt. eigenvalues --   -0.04388  -0.02151  -0.00823   0.01033   0.01527
 Alpha virt. eigenvalues --    0.02141   0.02905   0.03661   0.05445   0.05648
 Alpha virt. eigenvalues --    0.05733   0.06300   0.07247   0.07879   0.08513

 Mulliken charges:
               1
     1  C   -0.365513
     2  C    0.185356
     3  C   -0.163249
     4  C   -0.827253
     5  C    0.165724
     6  C   -0.341796
     7  H    0.180302
     8  H    0.209281
     9  C    0.682412
    10  C   -0.090034
    11  H    0.182081
    12  C   -0.484826
    13  C    0.164278
    14  H    0.179276
    15  H    0.180883
    16  H    0.163082
    17  H    0.179730
    18  O   -0.704144
    19  H    0.504407
 Sum of Mulliken charges =   0.00000

 Dipole moment (field-independent basis, Debye):
    X=              1.2764    Y=              0.2063    Z=              0.0000  Tot=              1.2929
 Quadrupole moment (field-independent basis, Debye-Ang):
   XX=            -50.9030   YY=            -59.9161   ZZ=            -70.1293
   XY=             -2.7267   XZ=              0.0000   YZ=              0.0000

  Exact polarizability: 169.289   7.785 132.746  -0.003   0.001  63.302
 Approx polarizability: 278.903  13.818 229.918   0.000   0.000  93.947

                      1                      2                      3
                      A                      A                      A
 Frequencies --    142.3838               177.3617               262.0322
 Red. masses --      4.4930                 3.8957                 3.6633
 Frc consts  --      0.0537                 0.0722                 0.1482
 IR Inten    --      0.4925                 6.0788                 7.2135

                      4                      5                      6
                      A                      A                      A
 Frequencies --    291.6012               353.7513               430.4514
 Red. masses --      5.3099                 1.1379                 3.1181
 Frc consts  --      0.2660                 0.0839                 0.3404
 IR Inten    --      7.2753               107.3117                 1.2624

                      7                      8                      9
                      A                      A                      A
 Frequencies --    471.8294               478.7677               485.5210
 Red. masses --      4.4245                 3.3547                 7.2862
 Frc consts  --      0.5803                 0.4531                 1.0120
 IR Inten    --      0.3348                 0.1043                 0.8714

                     10                     11                     12
                      A                      A                      A
 Frequencies --    531.7621               582.5098               584.9190
 Red. masses --      6.0090                 6.5802                 3.2249
 Frc consts  --      1.0011                 1.3155                 0.6501
 IR Inten    --      5.3253                 0.9390                 6.0354

                     13                     14                     15
                      A                      A                      A
 Frequencies --    639.5328               722.8885               739.1906
 Red. masses --      3.3107                 5.6017                 1.4131
 Frc consts  --      0.7978                 1.7247                 0.4549
 IR Inten    --      0.3669                 3.6841                 3.3688

                     16                     17                     18
                      A                      A                      A
 Frequencies --    782.8948               799.9182               800.2416
 Red. masses --      1.7225                 5.4375                 1.8396
 Frc consts  --      0.6221                 2.0499                 0.6941
 IR Inten    --     64.1963                 6.2648                71.2493

                     19                     20                     21
                      A                      A                      A
 Frequencies --    861.7259               887.0882               889.0085
 Red. masses --      1.4590                 1.5655                 4.9450
 Frc consts  --      0.6383                 0.7258                 2.3027
 IR Inten    --      0.3032                 0.9257                12.4998

                     22                     23                     24
                      A                      A                      A
 Frequencies --    963.9654               975.9034              1000.5141
 Red. masses --      1.2876                 1.3486                 1.2945
 Frc consts  --      0.7049                 0.7568                 0.7635
 IR Inten    --      0.0000                 2.5869                 0.0051

                     25                     26                     27
                      A                      A                      A
 Frequencies --   1045.0471              1068.0376              1109.1106
 Red. masses --      3.1764                 2.5893                 2.2645
 Frc consts  --      2.0439                 1.7402                 1.6412
 IR Inten    --     25.3533                46.2104                18.7774

                     28                     29                     30
                      A                      A                      A
 Frequencies --   1175.3370              1188.8492              1204.7566
 Red. masses --      1.4326                 1.3011                 1.1243
 Frc consts  --      1.1660                 1.0835                 0.9615
 IR Inten    --     15.2874                23.2630                 1.3084

                     31                     32                     33
                      A                      A                      A
 Frequencies --   1225.7401              1260.9156              1280.9228
 Red. masses --      1.4922                 1.7796                 1.7188
 Frc consts  --      1.3209                 1.6671                 1.6616
 IR Inten    --     24.0129                17.3568                42.1800

                     34                     35                     36
                      A                      A                      A
 Frequencies --   1311.1335              1402.0366              1423.2820
 Red. masses --      2.2488                 4.6669                 4.6550
 Frc consts  --      2.2777                 5.4050                 5.5559
 IR Inten    --     77.9710                 9.0181                33.4702

                     37                     38                     39
                      A                      A                      A
 Frequencies --   1441.3660              1499.3270              1505.7506
 Red. masses --      1.8793                 2.0397                 2.3917
 Frc consts  --      2.3003                 2.7016                 3.1950
 IR Inten    --     25.4231                 5.9669                10.2992

                     40                     41                     42
                      A                      A                      A
 Frequencies --   1563.3463              1626.1461              1647.6727
 Red. masses --      3.4912                 7.0127                 4.9553
 Frc consts  --      5.0273                10.9259                 7.9262
 IR Inten    --     17.7696                53.3121                21.9231

                     43                     44                     45
                      A                      A                      A
 Frequencies --   1681.1267              3164.7878              3173.6684
 Red. masses --      6.1590                 1.0888                 1.0865
 Frc consts  --     10.2555                 6.4254                 6.4476
 IR Inten    --     11.0277                19.6012                 1.2989

                     46                     47                     48
                      A                      A                      A
 Frequencies --   3182.5979              3187.3116              3201.0274
 Red. masses --      1.0882                 1.0899                 1.0949
 Frc consts  --      6.4943                 6.5239                 6.6100
 IR Inten    --      5.9737                20.1506                35.5555

                     49                     50                     51
                      A                      A                      A
 Frequencies --   3202.6363              3223.3974              3760.9569
 Red. masses --      1.0959                 1.0935                 1.0663
 Frc consts  --      6.6227                 6.6944                 8.8867
 IR Inten    --     18.6781                 8.1461                57.5854

 - Thermochemistry -
 -------------------
 Temperature   298.150 Kelvin.  Pressure   1.00000 Atm.
 Atom     1 has atomic number  6 and mass  12.00000

 Molecular mass:   144.05751 amu.
 Principal axes and moments of inertia in atomic units:
                           1         2         3
     Eigenvalues --   932.831451599.896462532.72791
           X            0.99994   0.01068   0.00000
           Y           -0.01068   0.99994   0.00000
           Z            0.00000   0.00000   1.00000
 This molecule is an asymmetric top.
 Rotational symmetry number  1.
 Warning -- assumption of classical behavior for rotation
           may cause significant error
 Rotational temperatures (Kelvin)      0.09285     0.05414     0.03420
 Rotational constants (GHZ):           1.93469     1.12804     0.71257
 Zero-point vibrational energy     398428.5 (Joules/Mol)
                                   95.22671 (Kcal/Mol)
 Warning -- explicit consideration of  12 degrees of freedom as
           vibrations may cause significant error
 Vibrational temperatures:    204.86   255.18   377.01   419.55   508.97
          (Kelvin)            619.32   678.86   688.84   698.56   765.09
                              838.10   841.57   920.14  1040.07  1063.53
                             1126.41  1150.90  1151.37  1239.83  1276.32
                             1279.08  1386.93  1404.11  1439.51  1503.59
                             1536.67  1595.76  1691.05  1710.49  1733.37
                             1763.56  1814.17  1842.96  1886.43  2017.22
                             2047.78  2073.80  2157.19  2166.44  2249.30
                             2339.66  2370.63  2418.76  4553.42  4566.20
                             4579.04  4585.82  4605.56  4607.87  4637.74
                             5411.17

 Zero-point correction=                           0.151753 (Hartree/Particle)
 Thermal correction to Energy=                    0.159744
 Thermal correction to Enthalpy=                  0.160688
 Thermal correction to Gibbs Free Energy=         0.119191
 Sum of electronic and zero-point Energies=           -460.989837
 Sum of electronic and thermal Energies=              -460.981846
 Sum of electronic and thermal Enthalpies=            -460.980902
 Sum of electronic and thermal Free Energies=         -461.022399

                     E (Thermal)             CV                S
                      KCal/Mol        Cal/Mol-Kelvin    Cal/Mol-Kelvin
 Total                  100.241             33.449             87.339
 Electronic               0.000              0.000              0.000
 Translational            0.889              2.981             40.806
 Rotational               0.889              2.981             29.715
 Vibrational             98.463             27.487             16.818
 Vibration     1          0.616              1.911              2.772
 Vibration     2          0.628              1.870              2.356
 Vibration     3          0.669              1.742              1.648
 Vibration     4          0.687              1.689              1.465
 Vibration     5          0.730              1.568              1.149
 Vibration     6          0.792              1.404              0.857
 Vibration     7          0.829              1.313              0.732
 Vibration     8          0.835              1.297              0.713
 Vibration     9          0.842              1.282              0.695
 Vibration    10          0.887              1.180              0.583
 Vibration    11          0.939              1.069              0.481
 Vibration    12          0.942              1.064              0.476

 Optimization completed.
    -- Stationary point found.
 Normal termination of Gaussian 09 at Thu Sep 14 14:00:25 2023.
