 Gaussian 16, Revision B.01,
 Gaussian 16:  EM64L-G16RevB.01 20-Dec-2017

 ----------------------------------------------------------------------
 # opt freq b3lyp/gen nosymm empiricaldispersion=gd3 pseudo=read scf=ma
 xcycle=1000 volume
 ----------------------------------------------------------------------

 -------------------
 Title Card Required
 -------------------
 Symbolic Z-matrix:
 Charge =  0 Multiplicity = 1

 SCF Done:  E(RB3LYP) =  -727.509081173     A.U. after   15 cycles
 SCF Done:  E(RB3LYP) =  -727.511581727     A.U. after   10 cycles
 SCF Done:  E(RB3LYP) =  -727.512826124     A.U. after   10 cycles
 SCF Done:  E(RB3LYP) =  -727.512846831     A.U. after    8 cycles
 SCF Done:  E(RB3LYP) =  -727.512852579     A.U. after    8 cycles
 SCF Done:  E(RB3LYP) =  -727.512853284     A.U. after    7 cycles
 SCF Done:  E(RB3LYP) =  -727.512854795     A.U. after    8 cycles
 SCF Done:  E(RB3LYP) =  -727.512855270     A.U. after    7 cycles
 SCF Done:  E(RB3LYP) =  -727.512855753     A.U. after    8 cycles
 Optimization completed.
    -- Stationary point found.

 1\1\GINC-IP-172-31-0-122\FOpt\RB3LYP\Gen\K3O4P1\UBUNTU\18-Sep-2023\0\\
 # opt freq b3lyp/gen nosymm empiricaldispersion=gd3 pseudo=read scf=ma
 xcycle=1000 volume\\Title Card Required\\0,1\O,4.1049181522,-1.8954029
 073,-3.9769565725\P,3.3976635683,-2.6746637244,-2.7901777092\O,4.43601
 27991,-3.6122673651,-2.0429056346\O,2.7589003514,-1.649170528,-1.77026
 40082\O,2.1942477786,-3.5356808687,-3.3489231681\K,1.5883197727,-0.955
 6824441,-4.1872545507\K,2.1899840266,-4.1289765793,-0.6439873802\K,6.3
 744785512,-2.951402583,-3.5451799765\\Version=EM64L-G16RevB.01\HF=-727

 Normal termination of Gaussian 16 at Mon Sep 18 08:47:48 2023.

 ------------------------------------------------------------------
 #N Geom=AllCheck Guess=TCheck SCRF=Check GenChk RB3LYP/ChkBas Freq
 ------------------------------------------------------------------

 Structure from the checkpoint file:  "K3PO4.chk"
 -------------------
 Title Card Required
 -------------------
 Charge =  0 Multiplicity = 1

                          Input orientation:
 ---------------------------------------------------------------------
 Center     Atomic      Atomic             Coordinates (Angstroms)
 Number     Number       Type             X           Y           Z
 ---------------------------------------------------------------------
      1          8           0        4.104918   -1.895403   -3.976957
      2         15           0        3.397664   -2.674664   -2.790178
      3          8           0        4.436013   -3.612267   -2.042906
      4          8           0        2.758900   -1.649171   -1.770264
      5          8           0        2.194248   -3.535681   -3.348923
      6         19           0        1.588320   -0.955682   -4.187255
      7         19           0        2.189984   -4.128977   -0.643987
      8         19           0        6.374479   -2.951403   -3.545180
 ---------------------------------------------------------------------

 SCF Done:  E(RB3LYP) =  -727.512855753     A.U. after    1 cycles

 Alpha  occ. eigenvalues --  -77.06170 -18.98678 -18.98677 -18.97254 -18.97245
 Alpha  occ. eigenvalues --   -6.51594  -4.67934  -4.67896  -4.67843  -1.34930
 Alpha  occ. eigenvalues --   -1.34372  -1.34366  -0.89041  -0.80243  -0.79732
 Alpha  occ. eigenvalues --   -0.78201  -0.69364  -0.68919  -0.68649  -0.68506
 Alpha  occ. eigenvalues --   -0.68498  -0.68375  -0.68238  -0.68230  -0.68050
 Alpha  occ. eigenvalues --   -0.38201  -0.29412  -0.28638  -0.27992  -0.20823
 Alpha  occ. eigenvalues --   -0.20066  -0.19126  -0.18550  -0.18091  -0.14678
 Alpha  occ. eigenvalues --   -0.13277  -0.12068
 Alpha virt. eigenvalues --   -0.02714  -0.02051  -0.01631   0.02419   0.02434
 Alpha virt. eigenvalues --    0.02577   0.03615   0.03984   0.04195   0.04241
 Alpha virt. eigenvalues --    0.05814   0.06205   0.06782   0.06818   0.06931

 Mulliken charges:
               1
     1  O   -1.122309
     2  P    1.493927
     3  O   -1.122102
     4  O   -1.043477
     5  O   -1.045007
     6  K    0.939094
     7  K    0.939039
     8  K    0.960836
 Sum of Mulliken charges =   0.00000

 Dipole moment (field-independent basis, Debye):
    X=              0.5359    Y=             -0.0970    Z=             -0.1840  Tot=              0.5748
 Quadrupole moment (field-independent basis, Debye-Ang):
   XX=            -20.2122   YY=            -59.5187   ZZ=            -50.5125
   XY=            -11.1181   XZ=            -12.0326   YZ=            -22.0876

  Exact polarizability:  74.636  -2.444  66.237  -2.337  -6.353  68.508
 Approx polarizability:  85.380  -2.017  79.581  -1.660  -5.617  81.501

                      1                      2                      3
                      A                      A                      A
 Frequencies --     39.5290                74.9996                77.7468
 Red. masses --     21.4947                20.2561                34.4740
 Frc consts  --      0.0198                 0.0671                 0.1228
 IR Inten    --     55.2540                31.7908                16.0264

                      4                      5                      6
                      A                      A                      A
 Frequencies --     86.8486                92.9372               200.3712
 Red. masses --     31.4985                18.0771                38.3671
 Frc consts  --      0.1400                 0.0920                 0.9076
 IR Inten    --     22.8988                 0.1487                 0.1309

                      7                      8                      9
                      A                      A                      A
 Frequencies --    219.0209               249.6034               266.5373
 Red. masses --     21.5597                26.0338                21.0980
 Frc consts  --      0.6093                 0.9556                 0.8831
 IR Inten    --     45.2875               110.3856                73.9944

                     10                     11                     12
                      A                      A                      A
 Frequencies --    371.6977               429.0563               512.8253
 Red. masses --     15.9952                16.4477                17.6511
 Frc consts  --      1.3020                 1.7840                 2.7350
 IR Inten    --      0.0010                 4.7893                40.1674

                     13                     14                     15
                      A                      A                      A
 Frequencies --    547.7784               551.7936               847.4373
 Red. masses --     17.6075                17.4909                16.0236
 Frc consts  --      3.1128                 3.1377                 6.7799
 IR Inten    --     32.0225                44.9566                 5.0687

                     16                     17                     18
                      A                      A                      A
 Frequencies --    949.5944               966.8609               976.8065
 Red. masses --     20.3253                21.0033                20.8689
 Frc consts  --     10.7985                11.5682                11.7318
 IR Inten    --    431.2481               460.4321               526.4386

 - Thermochemistry -
 -------------------
 Temperature   298.150 Kelvin.  Pressure   1.00000 Atm.
 Atom     1 has atomic number  8 and mass  15.99491

 Molecular mass:   211.84455 amu.
 Principal axes and moments of inertia in atomic units:
                           1         2         3
     Eigenvalues --  1975.265802378.926703990.33272
           X            0.96582   0.12669   0.22615
           Y           -0.08748  -0.66194   0.74444
           Z           -0.24401   0.73877   0.62823
 This molecule is an asymmetric top.
 Rotational symmetry number  1.
 Warning -- assumption of classical behavior for rotation
           may cause significant error
 Rotational temperatures (Kelvin)      0.04385     0.03641     0.02171
 Rotational constants (GHZ):           0.91367     0.75864     0.45228
 Zero-point vibrational energy      44629.3 (Joules/Mol)
                                   10.66667 (Kcal/Mol)
 Warning -- explicit consideration of  14 degrees of freedom as
           vibrations may cause significant error
 Vibrational temperatures:     56.87   107.91   111.86   124.96   133.72
          (Kelvin)            288.29   315.12   359.12   383.49   534.79
                              617.32   737.84   788.13   793.91  1219.27
                             1366.25  1391.10  1405.41

 Zero-point correction=                           0.016998 (Hartree/Particle)
 Thermal correction to Energy=                    0.027208
 Thermal correction to Enthalpy=                  0.028152
 Thermal correction to Gibbs Free Energy=        -0.021942
 Sum of electronic and zero-point Energies=           -727.495857
 Sum of electronic and thermal Energies=              -727.485648
 Sum of electronic and thermal Enthalpies=            -727.484704
 Sum of electronic and thermal Free Energies=         -727.534798

                     E (Thermal)             CV                S
                      KCal/Mol        Cal/Mol-Kelvin    Cal/Mol-Kelvin
 Total                   17.073             31.203            105.431
 Electronic               0.000              0.000              0.000
 Translational            0.889              2.981             41.956
 Rotational               0.889              2.981             31.306
 Vibrational             15.296             25.242             32.170
 Vibration     1          0.594              1.981              5.283
 Vibration     2          0.599              1.966              4.018
 Vibration     3          0.599              1.964              3.947
 Vibration     4          0.601              1.958              3.730
 Vibration     5          0.602              1.954              3.597
 Vibration     6          0.638              1.839              2.130
 Vibration     7          0.647              1.812              1.967
 Vibration     8          0.662              1.763              1.733
 Vibration     9          0.672              1.734              1.619
 Vibration    10          0.743              1.530              1.073
 Vibration    11          0.790              1.407              0.862
 Vibration    12          0.868              1.222              0.627
 Vibration    13          0.903              1.145              0.549
 Vibration    14          0.907              1.136              0.540

                           ! Non-Optimized Parameters !

 1\1\GINC-IP-172-31-0-122\Freq\RB3LYP\Gen\K3O4P1\UBUNTU\18-Sep-2023\0\\
 #N Geom=AllCheck Guess=TCheck SCRF=Check GenChk RB3LYP/ChkBas Freq\\Ti
 tle Card Required\\0,1\O,4.1049181522,-1.8954029073,-3.9769565725\P,3.
 3976635683,-2.6746637244,-2.7901777092\O,4.4360127991,-3.6122673651,-2
 .0429056346\O,2.7589003514,-1.649170528,-1.7702640082\O,2.1942477786,-
 3.5356808687,-3.3489231681\K,1.5883197727,-0.9556824441,-4.1872545507\
 K,2.1899840266,-4.1289765793,-0.6439873802\K,6.3744785512,-2.951402583
 ,-3.5451799765\\Version=EM64L-G16RevB.01\HF=-727.5128558\RMSD=1.300e-0

 Normal termination of Gaussian 16 at Mon Sep 18 08:48:11 2023.
