 Gaussian 16, Revision B.01,
 Gaussian 16:  EM64L-G16RevB.01 20-Dec-2017

 ----------------------------------------------------------------------
 # opt freq b3lyp/gen empiricaldispersion=gd3 pseudo=read scf=maxcycle=
 1000 volume
 ----------------------------------------------------------------------

 -------------------
 Title Card Required
 -------------------
 Symbolic Z-matrix:
 Charge =  0 Multiplicity = 1

 SCF Done:  E(RB3LYP) =  -304.224829867     A.U. after   14 cycles
 SCF Done:  E(RB3LYP) =  -304.224830845     A.U. after    8 cycles
 SCF Done:  E(RB3LYP) =  -304.224831441     A.U. after    8 cycles
 Optimization completed.
    -- Stationary point found.
 Normal termination of Gaussian 16 at Wed Sep 13 09:18:03 2023.

 ------------------------------------------------------------------
 #N Geom=AllCheck Guess=TCheck SCRF=Check GenChk RB3LYP/ChkBas Freq
 ------------------------------------------------------------------

 Structure from the checkpoint file:  "Cs2CO3-vol.chk"
 -------------------
 Title Card Required
 -------------------
 Charge =  0 Multiplicity = 1

                         Standard orientation:
 ---------------------------------------------------------------------
 Center     Atomic      Atomic             Coordinates (Angstroms)
 Number     Number       Type             X           Y           Z
 ---------------------------------------------------------------------
      1          6           0        0.000000    0.000000   -1.236682
      2          8           0        0.000000    1.130364   -1.849689
      3          8           0        0.000000    0.000000    0.112460
      4          8           0        0.000000   -1.130364   -1.849689
      5         55           0        0.000000    2.851143    0.328322
      6         55           0        0.000000   -2.851143    0.328322
 ---------------------------------------------------------------------

 SCF Done:  E(RB3LYP) =  -304.224831441     A.U. after    1 cycles

 The electronic state is 1-A1.
 Alpha  occ. eigenvalues --  -18.99669 -18.98518 -18.98512 -10.20009  -1.02858
 Alpha  occ. eigenvalues --   -1.02811  -0.93837  -0.82645  -0.81375  -0.50716
 Alpha  occ. eigenvalues --   -0.50691  -0.50371  -0.50349  -0.49498  -0.49485
 Alpha  occ. eigenvalues --   -0.38370  -0.32251  -0.31425  -0.30830  -0.17865
 Alpha  occ. eigenvalues --   -0.16179  -0.16068  -0.15246  -0.11663
 Alpha virt. eigenvalues --   -0.03727  -0.03216   0.00653   0.00747   0.01398
 Alpha virt. eigenvalues --    0.01424   0.02340   0.02903   0.04417   0.05267
 Alpha virt. eigenvalues --    0.12534   0.12930   0.13714   0.15136   0.18425

 Mulliken charges:
               1
     1  C    0.708714
     2  O   -0.776841
     3  O   -0.964276
     4  O   -0.776841
     5  Cs   0.904622
     6  Cs   0.904622
 Sum of Mulliken charges =   0.00000

 Dipole moment (field-independent basis, Debye):
    X=              0.0000    Y=              0.0000    Z=             11.4835  Tot=             11.4835
 Quadrupole moment (field-independent basis, Debye-Ang):
   XX=            -60.2514   YY=             -6.6318   ZZ=            -82.8584
   XY=              0.0000   XZ=              0.0000   YZ=              0.0000

  Exact polarizability:  38.777   0.000  87.606   0.000   0.000  66.065
 Approx polarizability:  46.363   0.000  90.505   0.000   0.000  78.556

                      1                      2                      3
                     A2                     A1                     B1
 Frequencies --     55.7213                58.1510                78.3350
 Red. masses --     16.2605                57.8745                16.4617
 Frc consts  --      0.0297                 0.1153                 0.0595
 IR Inten    --      0.0000                 8.3856                17.2663

                      4                      5                      6
                     A1                     B2                     B2
 Frequencies --    158.1160               200.7879               224.3225
 Red. masses --     21.5750                18.7760                16.4331
 Frc consts  --      0.3178                 0.4460                 0.4872
 IR Inten    --     52.9147               102.9727                 0.0373

                      7                      8                      9
                     A1                     B2                     B1
 Frequencies --    664.8933               667.5722               849.0298
 Red. masses --     15.7214                15.6635                12.6523
 Frc consts  --      4.0949                 4.1128                 5.3736
 IR Inten    --      0.1903                13.2074                15.4281

                     10                     11                     12
                     A1                     A1                     B2
 Frequencies --   1006.5031              1312.1009              1521.9495
 Red. masses --     15.5974                13.1276                12.8579
 Frc consts  --      9.3096                13.3159                17.5478
 IR Inten    --     65.4954               578.0884               987.7794

 - Thermochemistry -
 -------------------
 Temperature   298.150 Kelvin.  Pressure   1.00000 Atm.
 Atom     1 has atomic number  6 and mass  12.00000

 Molecular mass:   325.79560 amu.
 Principal axes and moments of inertia in atomic units:
                           1         2         3
     Eigenvalues --   556.944817862.252078419.19688
           X            0.00000   0.00000   1.00000
           Y            1.00000   0.00000   0.00000
           Z            0.00000   1.00000   0.00000
 This molecule is an asymmetric top.
 Rotational symmetry number  2.
 Warning -- assumption of classical behavior for rotation
           may cause significant error
 Rotational temperatures (Kelvin)      0.15552     0.01102     0.01029
 Rotational constants (GHZ):           3.24043     0.22955     0.21436
 Zero-point vibrational energy      40658.0 (Joules/Mol)
                                    9.71749 (Kcal/Mol)
 Warning -- explicit consideration of   6 degrees of freedom as
           vibrations may cause significant error
 Vibrational temperatures:     80.17    83.67   112.71   227.49   288.89
          (Kelvin)            322.75   956.63   960.49  1221.56  1448.13
                             1887.82  2189.75

 Zero-point correction=                           0.015486 (Hartree/Particle)
 Thermal correction to Energy=                    0.022819
 Thermal correction to Enthalpy=                  0.023763
 Thermal correction to Gibbs Free Energy=        -0.021142
 Sum of electronic and zero-point Energies=           -304.209346
 Sum of electronic and thermal Energies=              -304.202012
 Sum of electronic and thermal Enthalpies=            -304.201068
 Sum of electronic and thermal Free Energies=         -304.245974

                     E (Thermal)             CV                S
                      KCal/Mol        Cal/Mol-Kelvin    Cal/Mol-Kelvin
 Total                   14.319             20.357             94.512
 Electronic               0.000              0.000              0.000
 Translational            0.889              2.981             43.239
 Rotational               0.889              2.981             30.600
 Vibrational             12.542             14.395             20.673
 Vibration     1          0.596              1.975              4.603
 Vibration     2          0.596              1.974              4.519
 Vibration     3          0.600              1.964              3.932
 Vibration     4          0.621              1.894              2.572
 Vibration     5          0.638              1.839              2.126
 Vibration     6          0.649              1.804              1.924

                           ! Non-Optimized Parameters !
 Normal termination of Gaussian 16 at Wed Sep 13 09:18:12 2023.
