 Gaussian 16, Revision B.01,
 Gaussian 16:  EM64L-G16RevB.01 20-Dec-2017

 ----------------------------------------------------------------------
 # opt freq b3lyp/6-31+g(d) empiricaldispersion=gd3 scf=maxcycle=1000 v
 olume
 ----------------------------------------------------------------------

 -------------------
 Title Card Required
 -------------------
 Symbolic Z-matrix:
 Charge =  0 Multiplicity = 1

 SCF Done:  E(RB3LYP) =  -292.441859060     A.U. after   11 cycles
 SCF Done:  E(RB3LYP) =  -292.441858758     A.U. after    7 cycles
 SCF Done:  E(RB3LYP) =  -292.441858484     A.U. after    7 cycles
 Optimization completed.
    -- Stationary point found.
 Normal termination of Gaussian 16 at Wed Sep 13 09:29:32 2023.

 ---------------------------------------------------------------------
 #N Geom=AllCheck Guess=TCheck SCRF=Check GenChk RB3LYP/6-31+G(d) Freq
 ---------------------------------------------------------------------

 Structure from the checkpoint file:  "et3n-vol.chk"
 -------------------
 Title Card Required
 -------------------
 Charge =  0 Multiplicity = 1

                         Standard orientation:
 ---------------------------------------------------------------------
 Center     Atomic      Atomic             Coordinates (Angstroms)
 Number     Number       Type             X           Y           Z
 ---------------------------------------------------------------------
      1          7           0       -0.000031    0.000013    0.015735
      2          6           0        0.103124    1.401190    0.444369
      3          1           0        1.156404    1.695173    0.395660
      4          1           0       -0.198768    1.510656    1.506269
      5          6           0       -0.702903    2.358793   -0.436572
      6          1           0       -0.575078    3.392254   -0.090988
      7          1           0       -0.363335    2.291093   -1.476031
      8          1           0       -1.775530    2.134986   -0.417999
      9          6           0       -1.265036   -0.611296    0.444377
     10          1           0       -2.046266    0.153888    0.395756
     11          1           0       -1.208848   -0.927518    1.506268
     12          6           0       -1.691423   -1.788092   -0.436583
     13          1           0       -2.650402   -2.194002   -0.091040
     14          1           0       -1.802496   -1.460163   -1.476045
     15          1           0       -0.961411   -2.605208   -0.417980
     16          6           0        1.161913   -0.789916    0.444240
     17          1           0        1.407649   -0.583282    1.506160
     18          1           0        0.889927   -1.849084    0.395468
     19          6           0        2.394328   -0.570673   -0.436606
     20          1           0        2.736670    0.470199   -0.418243
     21          1           0        3.225464   -1.197868   -0.090708
     22          1           0        2.166217   -0.831258   -1.476038
 ---------------------------------------------------------------------

 SCF Done:  E(RB3LYP) =  -292.441858484     A.U. after    1 cycles

 The electronic state is 1-A.
 Alpha  occ. eigenvalues --  -14.32575 -10.20873 -10.20873 -10.20872 -10.17599
 Alpha  occ. eigenvalues --  -10.17598 -10.17598  -0.91961  -0.76011  -0.76010
 Alpha  occ. eigenvalues --   -0.70670  -0.62323  -0.62323  -0.56398  -0.47798
 Alpha  occ. eigenvalues --   -0.47798  -0.45388  -0.43434  -0.43434  -0.39860
 Alpha  occ. eigenvalues --   -0.38293  -0.37530  -0.37530  -0.35376  -0.35375
 Alpha  occ. eigenvalues --   -0.35302  -0.32888  -0.32888  -0.21427
 Alpha virt. eigenvalues --    0.00930   0.01888   0.01889   0.02359   0.04368
 Alpha virt. eigenvalues --    0.04368   0.05822   0.05944   0.05944   0.07437
 Alpha virt. eigenvalues --    0.08150   0.08150   0.09271   0.10154   0.10154

 Mulliken charges:
               1
     1  N    0.040268
     2  C   -0.379620
     3  H    0.184373
     4  H    0.185473
     5  C   -0.605042
     6  H    0.194025
     7  H    0.215694
     8  H    0.191731
     9  C   -0.379601
    10  H    0.184372
    11  H    0.185471
    12  C   -0.605066
    13  H    0.194030
    14  H    0.215694
    15  H    0.191733
    16  C   -0.379790
    17  H    0.185471
    18  H    0.184375
    19  C   -0.605022
    20  H    0.191725
    21  H    0.194033
    22  H    0.215672
 Sum of Mulliken charges =   0.00000

 Dipole moment (field-independent basis, Debye):
    X=              0.0002    Y=             -0.0001    Z=              0.5482  Tot=              0.5482
 Quadrupole moment (field-independent basis, Debye-Ang):
   XX=            -47.2814   YY=            -47.2819   ZZ=            -50.1947
   XY=             -0.0001   XZ=             -0.0003   YZ=              0.0004

  Exact polarizability:  86.867   0.000  86.866  -0.001   0.000  77.311
 Approx polarizability: 108.572   0.000 108.572  -0.001   0.000 109.164

                      1                      2                      3
                      A                      A                      A
 Frequencies --     91.4182                92.4470                93.8002
 Red. masses --      1.9605                 1.9693                 1.9840
 Frc consts  --      0.0097                 0.0099                 0.0103
 IR Inten    --      0.2172                 0.2186                 0.0034

                      4                      5                      6
                      A                      A                      A
 Frequencies --    196.3367               219.9614               220.5522
 Red. masses --      1.2586                 1.1855                 1.1832
 Frc consts  --      0.0286                 0.0338                 0.0339
 IR Inten    --      1.2221                 0.0323                 0.0330

                      7                      8                      9
                      A                      A                      A
 Frequencies --    311.0789               321.6879               321.7696
 Red. masses --      1.8730                 2.0437                 2.0460
 Frc consts  --      0.1068                 0.1246                 0.1248
 IR Inten    --      1.0926                 0.2963                 0.2926

                     10                     11                     12
                      A                      A                      A
 Frequencies --    448.9064               481.0104               481.2475
 Red. masses --      2.8804                 2.5515                 2.5517
 Frc consts  --      0.3420                 0.3478                 0.3482
 IR Inten    --      3.4220                 1.7896                 1.7891

                     13                     14                     15
                      A                      A                      A
 Frequencies --    754.1519               814.3683               814.4497
 Red. masses --      2.2828                 1.1562                 1.1561
 Frc consts  --      0.7650                 0.4518                 0.4518
 IR Inten    --     14.4396                 3.7424                 3.7345

                     16                     17                     18
                      A                      A                      A
 Frequencies --    827.3874               937.2404               937.2924
 Red. masses --      1.1832                 1.9465                 1.9466
 Frc consts  --      0.4772                 1.0074                 1.0076
 IR Inten    --      0.1465                 1.6121                 1.6083

                     19                     20                     21
                      A                      A                      A
 Frequencies --   1033.6849              1091.4251              1091.5906
 Red. masses --      2.6506                 2.6170                 2.6122
 Frc consts  --      1.6687                 1.8367                 1.8339
 IR Inten    --      6.6696                31.0840                30.9888

                     22                     23                     24
                      A                      A                      A
 Frequencies --   1099.5547              1112.7573              1112.8706
 Red. masses --      1.6298                 1.6748                 1.6732
 Frc consts  --      1.1610                 1.2219                 1.2210
 IR Inten    --      3.2108                 7.9902                 7.9004

                     25                     26                     27
                      A                      A                      A
 Frequencies --   1179.6981              1243.3466              1243.3929
 Red. masses --      1.7409                 2.2476                 2.2470
 Frc consts  --      1.4274                 2.0471                 2.0468
 IR Inten    --     12.2979                21.6179                21.5781

                     28                     29                     30
                      A                      A                      A
 Frequencies --   1336.8872              1341.5188              1341.7068
 Red. masses --      1.1073                 1.2046                 1.2048
 Frc consts  --      1.1660                 1.2773                 1.2778
 IR Inten    --      6.6687                21.8650                21.8940

                     31                     32                     33
                      A                      A                      A
 Frequencies --   1411.6500              1411.7174              1420.4201
 Red. masses --      1.2730                 1.2729                 1.2501
 Frc consts  --      1.4946                 1.4947                 1.4860
 IR Inten    --      3.6558                 3.6171                 0.2888

                     34                     35                     36
                      A                      A                      A
 Frequencies --   1439.7409              1439.7880              1439.8168
 Red. masses --      1.2952                 1.2914                 1.3532
 Frc consts  --      1.5818                 1.5773                 1.6529
 IR Inten    --     21.5227                21.6149                19.2030

                     37                     38                     39
                      A                      A                      A
 Frequencies --   1509.2697              1509.3457              1509.6427
 Red. masses --      1.0516                 1.0515                 1.0523
 Frc consts  --      1.4114                 1.4114                 1.4129
 IR Inten    --      3.5289                 3.5424                 2.5646

                     40                     41                     42
                      A                      A                      A
 Frequencies --   1515.7946              1523.8450              1523.9293
 Red. masses --      1.0454                 1.0418                 1.0418
 Frc consts  --      1.4152                 1.4253                 1.4255
 IR Inten    --      0.5874                 0.7340                 0.7057

                     43                     44                     45
                      A                      A                      A
 Frequencies --   1532.6792              1532.8242              1537.4627
 Red. masses --      1.0776                 1.0779                 1.0870
 Frc consts  --      1.4914                 1.4921                 1.5138
 IR Inten    --      7.6224                 7.5825                11.3910

                     46                     47                     48
                      A                      A                      A
 Frequencies --   2910.2621              2910.3221              2923.4581
 Red. masses --      1.0744                 1.0744                 1.0738
 Frc consts  --      5.3615                 5.3617                 5.4069
 IR Inten    --     25.4866                25.4622               259.2672

                     49                     50                     51
                      A                      A                      A
 Frequencies --   3042.9247              3042.9937              3043.2503
 Red. masses --      1.0359                 1.0359                 1.0362
 Frc consts  --      5.6512                 5.6515                 5.6543
 IR Inten    --     38.4072                38.5641                10.8657

                     52                     53                     54
                      A                      A                      A
 Frequencies --   3084.0961              3084.4512              3089.1117
 Red. masses --      1.0898                 1.0897                 1.0841
 Frc consts  --      6.1071                 6.1085                 6.0954
 IR Inten    --     15.4932                15.2764                 0.1530

                     55                     56                     57
                      A                      A                      A
 Frequencies --   3105.2872              3108.8643              3108.9467
 Red. masses --      1.1005                 1.0986                 1.0986
 Frc consts  --      6.2523                 6.2561                 6.2563
 IR Inten    --      8.9107                51.1617                51.0151

                     58                     59                     60
                      A                      A                      A
 Frequencies --   3118.6584              3121.1097              3121.2064
 Red. masses --      1.1029                 1.1013                 1.1013
 Frc consts  --      6.3200                 6.3207                 6.3209
 IR Inten    --     56.0295                49.7721                50.2226

 - Thermochemistry -
 -------------------
 Temperature   298.150 Kelvin.  Pressure   1.00000 Atm.
 Atom     1 has atomic number  7 and mass  14.00307

 Molecular mass:   101.12045 amu.
 Principal axes and moments of inertia in atomic units:
                           1         2         3
     Eigenvalues --   787.71353 787.768451372.32032
           X            0.99992  -0.01293   0.00002
           Y            0.01293   0.99992  -0.00001
           Z           -0.00002   0.00001   1.00000
 This molecule is an asymmetric top.
 Rotational symmetry number  1.
 Warning -- assumption of classical behavior for rotation
           may cause significant error
 Rotational temperatures (Kelvin)      0.10996     0.10995     0.06311
 Rotational constants (GHZ):           2.29111     2.29095     1.31510
 Zero-point vibrational energy     542305.6 (Joules/Mol)
                                  129.61414 (Kcal/Mol)
 Warning -- explicit consideration of  12 degrees of freedom as
           vibrations may cause significant error
 Vibrational temperatures:    131.53   133.01   134.96   282.48   316.48
          (Kelvin)            317.33   447.57   462.84   462.95   645.88
                              692.07   692.41  1085.06  1171.69  1171.81
                             1190.43  1348.48  1348.55  1487.24  1570.32
                             1570.56  1582.01  1601.01  1601.17  1697.32
                             1788.90  1788.97  1923.48  1930.15  1930.42
                             2031.05  2031.15  2043.67  2071.47  2071.53
                             2071.58  2171.50  2171.61  2172.04  2180.89
                             2192.47  2192.59  2205.18  2205.39  2212.07
                             4187.22  4187.30  4206.20  4378.09  4378.19
                             4378.56  4437.33  4437.84  4444.54  4467.82
                             4472.96  4473.08  4487.05  4490.58  4490.72

 Zero-point correction=                           0.206553 (Hartree/Particle)
 Thermal correction to Energy=                    0.215912
 Thermal correction to Enthalpy=                  0.216856
 Thermal correction to Gibbs Free Energy=         0.172721
 Sum of electronic and zero-point Energies=           -292.235305
 Sum of electronic and thermal Energies=              -292.225947
 Sum of electronic and thermal Enthalpies=            -292.225003
 Sum of electronic and thermal Free Energies=         -292.269137

                     E (Thermal)             CV                S
                      KCal/Mol        Cal/Mol-Kelvin    Cal/Mol-Kelvin
 Total                  135.487             33.552             92.890
 Electronic               0.000              0.000              0.000
 Translational            0.889              2.981             39.751
 Rotational               0.889              2.981             28.234
 Vibrational            133.709             27.591             24.904
 Vibration     1          0.602              1.955              3.629
 Vibration     2          0.602              1.955              3.608
 Vibration     3          0.603              1.954              3.579
 Vibration     4          0.636              1.845              2.167
 Vibration     5          0.647              1.811              1.959
 Vibration     6          0.647              1.810              1.955
 Vibration     7          0.700              1.653              1.357
 Vibration     8          0.707              1.632              1.302
 Vibration     9          0.707              1.632              1.301
 Vibration    10          0.808              1.363              0.799
 Vibration    11          0.837              1.292              0.707
 Vibration    12          0.838              1.292              0.707

                           ! Non-Optimized Parameters !
 Normal termination of Gaussian 16 at Wed Sep 13 09:31:20 2023.
