 Gaussian 16, Revision B.01,
 Gaussian 16:  EM64L-G16RevB.01 20-Dec-2017

 ----------------------------------------------------------------------
 # opt freq b3lyp/gen empiricaldispersion=gd3 pseudo=read scf=maxcycle=
 1000 volume
 ----------------------------------------------------------------------

 -------------------
 Title Card Required
 -------------------
 Symbolic Z-matrix:
 Charge =  0 Multiplicity = 1

 SCF Done:  E(RB3LYP) =  -426.772258111     A.U. after   11 cycles
 SCF Done:  E(RB3LYP) =  -426.772258132     A.U. after    7 cycles
 SCF Done:  E(RB3LYP) =  -426.772257688     A.U. after    8 cycles
 SCF Done:  E(RB3LYP) =  -426.772257985     A.U. after    8 cycles
 Optimization completed.
    -- Stationary point found.
 Normal termination of Gaussian 16 at Thu Sep 14 07:19:35 2023.

 ------------------------------------------------------------------
 #N Geom=AllCheck Guess=TCheck SCRF=Check GenChk RB3LYP/ChkBas Freq
 ------------------------------------------------------------------

 Structure from the checkpoint file:  "nahco3-vol.chk"
 -------------------
 Title Card Required
 -------------------
 Charge =  0 Multiplicity = 1

                         Standard orientation:
 ---------------------------------------------------------------------
 Center     Atomic      Atomic             Coordinates (Angstroms)
 Number     Number       Type             X           Y           Z
 ---------------------------------------------------------------------
      1          6           0       -0.569661    0.041528   -0.000804
      2          8           0       -1.934410    0.097955    0.000431
      3          1           0       -2.244074   -0.823871    0.000537
      4          8           0       -0.025939   -1.111929   -0.000584
      5          8           0        0.045426    1.140615   -0.000247
      6         11           0        1.907402   -0.039857    0.000680
 ---------------------------------------------------------------------

 SCF Done:  E(RB3LYP) =  -426.772257985     A.U. after    1 cycles

 The electronic state is 1-A.
 Alpha  occ. eigenvalues --  -38.51557 -19.15950 -19.10180 -19.09853 -10.31838
 Alpha  occ. eigenvalues --   -2.25244  -1.18547  -1.18539  -1.18318  -1.08524
 Alpha  occ. eigenvalues --   -0.98660  -0.94736  -0.58076  -0.46437  -0.43726
 Alpha  occ. eigenvalues --   -0.43054  -0.37627  -0.29843  -0.29287  -0.26061
 Alpha  occ. eigenvalues --   -0.24453
 Alpha virt. eigenvalues --   -0.06163   0.00386   0.01116   0.01530   0.05157
 Alpha virt. eigenvalues --    0.07356   0.07795   0.09530   0.09540   0.11525
 Alpha virt. eigenvalues --    0.12891   0.14160   0.18146   0.19415   0.20964

 Mulliken charges:
               1
     1  C    0.675309
     2  O   -0.605956
     3  H    0.473589
     4  O   -0.744876
     5  O   -0.703904
     6  Na   0.905838
 Sum of Mulliken charges =   0.00000

 Dipole moment (field-independent basis, Debye):
    X=              6.7847    Y=             -1.6866    Z=              0.0039  Tot=              6.9912
 Quadrupole moment (field-independent basis, Debye-Ang):
   XX=            -10.1758   YY=            -35.2179   ZZ=            -27.1562
   XY=              3.5544   XZ=              0.0081   YZ=             -0.0029

  Exact polarizability:  36.932   1.069  33.505  -0.003   0.001  20.640
 Approx polarizability:  44.498   1.564  47.290  -0.002   0.003  25.823

                      1                      2                      3
                      A                      A                      A
 Frequencies --    112.7227               236.0088               326.2848
 Red. masses --     12.0889                12.5037                18.0465
 Frc consts  --      0.0905                 0.4103                 1.1320
 IR Inten    --     37.7651                20.6985                56.6435

                      4                      5                      6
                      A                      A                      A
 Frequencies --    572.9893               583.2386               693.6106
 Red. masses --      5.4306                 1.1016                12.7550
 Frc consts  --      1.0505                 0.2208                 3.6155
 IR Inten    --     12.8224               117.0116                11.1512

                      7                      8                      9
                      A                      A                      A
 Frequencies --    819.3831              1017.0087              1235.8104
 Red. masses --     12.5439                13.3119                 1.3408
 Frc consts  --      4.9620                 8.1122                 1.2065
 IR Inten    --     33.7161                37.9212               144.1382

                     10                     11                     12
                      A                      A                      A
 Frequencies --   1416.5075              1679.2397              3727.8464
 Red. masses --     12.7197                 6.6763                 1.0648
 Frc consts  --     15.0372                11.0920                 8.7185
 IR Inten    --    550.7448               665.1388                50.5920

 - Thermochemistry -
 -------------------
 Temperature   298.150 Kelvin.  Pressure   1.00000 Atm.
 Atom     1 has atomic number  6 and mass  12.00000

 Molecular mass:    83.98234 amu.
 Principal axes and moments of inertia in atomic units:
                           1         2         3
     Eigenvalues --   147.98037 544.00859 691.98879
           X            0.99985   0.01756  -0.00014
           Y           -0.01756   0.99985  -0.00013
           Z            0.00014   0.00013   1.00000
 This molecule is an asymmetric top.
 Rotational symmetry number  1.
 Rotational temperatures (Kelvin)      0.58531     0.15921     0.12517
 Rotational constants (GHZ):          12.19581     3.31749     2.60805
 Zero-point vibrational energy      74292.0 (Joules/Mol)
                                   17.75621 (Kcal/Mol)
 Warning -- explicit consideration of   5 degrees of freedom as
           vibrations may cause significant error
 Vibrational temperatures:    162.18   339.56   469.45   824.40   839.15
          (Kelvin)            997.95  1178.91  1463.25  1778.06  2038.04
                             2416.05  5363.54

 Zero-point correction=                           0.028296 (Hartree/Particle)
 Thermal correction to Energy=                    0.033326
 Thermal correction to Enthalpy=                  0.034270
 Thermal correction to Gibbs Free Energy=        -0.000265
 Sum of electronic and zero-point Energies=           -426.743962
 Sum of electronic and thermal Energies=              -426.738932
 Sum of electronic and thermal Enthalpies=            -426.737988
 Sum of electronic and thermal Free Energies=         -426.772523

                     E (Thermal)             CV                S
                      KCal/Mol        Cal/Mol-Kelvin    Cal/Mol-Kelvin
 Total                   20.912             15.608             72.684
 Electronic               0.000              0.000              0.000
 Translational            0.889              2.981             39.198
 Rotational               0.889              2.981             25.524
 Vibrational             19.135              9.647              7.962
 Vibration     1          0.607              1.939              3.221
 Vibration     2          0.655              1.786              1.833
 Vibration     3          0.710              1.623              1.278
 Vibration     4          0.929              1.090              0.499
 Vibration     5          0.940              1.068              0.479

 Optimization completed.
    -- Stationary point found.
 Normal termination of Gaussian 16 at Thu Sep 14 07:19:42 2023.
