 Gaussian 16, Revision B.01,
 Gaussian 16:  EM64L-G16RevB.01 20-Dec-2017

 ----------------------------------------------------------------------
 # opt freq b3lyp/gen empiricaldispersion=gd3 pseudo=read scf=maxcycle=
 1000 volume
 ----------------------------------------------------------------------

 -------------------
 Title Card Required
 -------------------
 Symbolic Z-matrix:
 Charge =  0 Multiplicity = 1

 SCF Done:  E(RB3LYP) =  -399.799241095     A.U. after   12 cycles
 Optimization completed.
    -- Stationary point found.

 1\1\GINC-IP-172-31-36-226\FOpt\RB3LYP\Gen\Na2O1\UBUNTU\14-Sep-2023\0\\
 # opt freq b3lyp/gen empiricaldispersion=gd3 pseudo=read scf=maxcycle=
 1000 volume\\Title Card Required\\0,1\O,0.,0.,-0.000683\Na,0.,1.997058
 ,0.000248\Na,0.,-1.997058,0.000248\\Version=EM64L-G16RevB.01\State=1-A
 1\HF=-399.7992411\RMSD=5.787e-09\RMSF=1.047e-04\Dipole=0.,0.,0.0020562
 \Quadrupole=-8.0299375,16.0598765,-8.029939,0.,0.,0.\PG=C02V [C2(O1),S
 GV(Na2)]\\@

 Normal termination of Gaussian 16 at Thu Sep 14 07:14:38 2023.

 ------------------------------------------------------------------
 #N Geom=AllCheck Guess=TCheck SCRF=Check GenChk RB3LYP/ChkBas Freq
 ------------------------------------------------------------------

 Structure from the checkpoint file:  "Na2O-vol.chk"
 -------------------
 Title Card Required
 -------------------
 Charge =  0 Multiplicity = 1

                         Standard orientation:
 ---------------------------------------------------------------------
 Center     Atomic      Atomic             Coordinates (Angstroms)
 Number     Number       Type             X           Y           Z
 ---------------------------------------------------------------------
      1          8           0        0.000000    0.000000    0.000683
      2         11           0        0.000000    1.997058   -0.000248
      3         11           0        0.000000   -1.997058   -0.000248
 ---------------------------------------------------------------------

 SCF Done:  E(RB3LYP) =  -399.799241095     A.U. after    1 cycles

 The electronic state is 1-A1.
 Alpha  occ. eigenvalues --  -38.43074 -38.43029 -18.95790  -2.16965  -2.16953
 Alpha  occ. eigenvalues --   -1.10202  -1.10202  -1.10199  -1.10199  -1.09899
 Alpha  occ. eigenvalues --   -1.09796  -0.68276  -0.13962  -0.11756  -0.11756
 Alpha virt. eigenvalues --   -0.04507  -0.03140   0.02379   0.02379   0.02996
 Alpha virt. eigenvalues --    0.02996   0.04289   0.06031   0.09157   0.11509
 Alpha virt. eigenvalues --    0.17043   0.17043   0.17129   0.17129   0.24904

 Mulliken charges:
               1
     1  O   -1.516559
     2  Na   0.758280
     3  Na   0.758280
 Sum of Mulliken charges =   0.00000

 Dipole moment (field-independent basis, Debye):
    X=              0.0000    Y=              0.0000    Z=             -0.0052  Tot=              0.0052
 Quadrupole moment (field-independent basis, Debye-Ang):
   XX=            -20.4148   YY=             11.9868   ZZ=            -20.4148
   XY=              0.0000   XZ=              0.0000   YZ=              0.0000

  Exact polarizability:  65.146   0.000 169.037   0.000   0.000  65.146
 Approx polarizability:  53.339   0.000 171.826   0.000   0.000  53.339

                      1                      2                      3
                     A1                     A1                     B2
 Frequencies --     64.4310               351.9770               676.2848
 Red. masses --     17.3580                22.9898                17.3580
 Frc consts  --      0.0425                 1.6781                 4.6774
 IR Inten    --    112.2108                 0.0000                79.4319

 - Thermochemistry -
 -------------------
 Temperature   298.150 Kelvin.  Pressure   1.00000 Atm.
 Atom     1 has atomic number  8 and mass  15.99491

 Molecular mass:    61.97445 amu.
 Principal axes and moments of inertia in atomic units:
                           1         2         3
     Eigenvalues --     0.00004 654.85283 654.85286
           X            0.00000   0.00000   1.00000
           Y            1.00000   0.00000   0.00000
           Z            0.00000   1.00000   0.00000
 This molecule is an asymmetric top.
 Rotational symmetry number  2.
 Rotational temperatures (Kelvin) ************     0.13226     0.13226
 Rotational constants (GHZ):      ************     2.75595     2.75595
 Zero-point vibrational energy       6535.8 (Joules/Mol)
                                    1.56208 (Kcal/Mol)
 Warning -- explicit consideration of   2 degrees of freedom as
           vibrations may cause significant error
 Vibrational temperatures:     92.70   506.42   973.02
          (Kelvin)

 Zero-point correction=                           0.002489 (Hartree/Particle)
 Thermal correction to Energy=                    0.006609
 Thermal correction to Enthalpy=                  0.007553
 Thermal correction to Gibbs Free Energy=        -0.017756
 Sum of electronic and zero-point Energies=           -399.796752
 Sum of electronic and thermal Energies=              -399.792633
 Sum of electronic and thermal Enthalpies=            -399.791688
 Sum of electronic and thermal Free Energies=         -399.816997

                     E (Thermal)             CV                S
                      KCal/Mol        Cal/Mol-Kelvin    Cal/Mol-Kelvin
 Total                    4.147             10.379             53.266
 Electronic               0.000              0.000              0.000
 Translational            0.889              2.981             38.292
 Rotational               0.889              2.981              9.165
 Vibrational              2.369              4.418              5.809
 Vibration     1          0.597              1.971              4.317
 Vibration     2          0.729              1.571              1.157

                           ! Non-Optimized Parameters !

 1\1\GINC-IP-172-31-36-226\Freq\RB3LYP\Gen\Na2O1\UBUNTU\14-Sep-2023\0\\
 #N Geom=AllCheck Guess=TCheck SCRF=Check GenChk RB3LYP/ChkBas Freq\\Ti
 tle Card Required\\0,1\O,0.,0.,-0.000683\Na,0.,1.997058,0.000248\Na,0.
 ,-1.997058,0.000248\\Version=EM64L-G16RevB.01\State=1-A1\HF=-399.79924
 11\RMSD=8.496e-10\RMSF=1.047e-04\ZeroPoint=0.0024893\Thermal=0.0066086
 \Dipole=0.,0.,0.0020563\DipoleDeriv=-1.1687154,0.,0.,0.,-0.9833063,0.,
 0.,0.,-1.1687151,0.5843577,0.,0.,0.,0.4916531,-0.0003909,0.,-0.0000437
 ,0.5843576,0.5843577,0.,0.,0.,0.4916531,0.0003909,0.,0.0000437,0.58435

 Normal termination of Gaussian 16 at Thu Sep 14 07:14:43 2023.
