 Gaussian 16, Revision B.01,
 Gaussian 16:  EM64L-G16RevB.01 20-Dec-2017

 ----------------------------------------------------------------------
 # opt freq b3lyp/gen empiricaldispersion=gd3 pseudo=read scf=maxcycle=
 1000 volume
 ----------------------------------------------------------------------

 -------------------
 Title Card Required
 -------------------
 Symbolic Z-matrix:
 Charge =  0 Multiplicity = 1

 SCF Done:  E(RB3LYP) =  -162.851580834     A.U. after    9 cycles
 Optimization completed.
    -- Stationary point found.

 1\1\GINC-IP-172-31-36-226\FOpt\RB3LYP\Gen\H1Na1\UBUNTU\14-Sep-2023\0\\
 # opt freq b3lyp/gen empiricaldispersion=gd3 pseudo=read scf=maxcycle=
 1000 volume\\Title Card Required\\0,1\Na,0.,0.,0.157275\H,0.,0.,-1.730
 023\\Version=EM64L-G16RevB.01\State=1-SG\HF=-162.8515808\RMSD=9.597e-0
 9\RMSF=1.577e-05\Dipole=0.,0.,2.378696\Quadrupole=1.5316158,1.5316158,
 -3.0632316,0.,0.,0.\PG=C*V [C*(H1Na1)]\\@

 Normal termination of Gaussian 16 at Thu Sep 14 07:17:23 2023.

 ------------------------------------------------------------------
 #N Geom=AllCheck Guess=TCheck SCRF=Check GenChk RB3LYP/ChkBas Freq
 ------------------------------------------------------------------

 Structure from the checkpoint file:  "Nah-vol.chk"
 -------------------
 Title Card Required
 -------------------
 Charge =  0 Multiplicity = 1

                         Standard orientation:
 ---------------------------------------------------------------------
 Center     Atomic      Atomic             Coordinates (Angstroms)
 Number     Number       Type             X           Y           Z
 ---------------------------------------------------------------------
      1         11           0        0.000000    0.000000    0.157275
      2          1           0        0.000000    0.000000   -1.730023
 ---------------------------------------------------------------------

 SCF Done:  E(RB3LYP) =  -162.851580834     A.U. after    1 cycles

 The electronic state is 1-SG.
 Alpha  occ. eigenvalues --  -38.48965  -2.23008  -1.16200  -1.16200  -1.15963
 Alpha  occ. eigenvalues --   -0.18632
 Alpha virt. eigenvalues --   -0.05811  -0.00447  -0.00447   0.05926   0.08212
 Alpha virt. eigenvalues --    0.12575   0.12575   0.17427   1.00742

 Mulliken charges:
               1
     1  Na   0.264940
     2  H   -0.264940
 Sum of Mulliken charges =   0.00000

 Dipole moment (field-independent basis, Debye):
    X=              0.0000    Y=              0.0000    Z=              6.0460  Tot=              6.0460
 Quadrupole moment (field-independent basis, Debye-Ang):
   XX=             -9.1586   YY=             -9.1586   ZZ=            -15.3388
   XY=              0.0000   XZ=              0.0000   YZ=              0.0000

  Exact polarizability:  38.318   0.000  38.318   0.000   0.000  48.278
 Approx polarizability:  34.711   0.000  34.711   0.000   0.000  62.908

                      1
                     SG
 Frequencies --   1168.3061
 Red. masses --      1.0500
 Frc consts  --      0.8444
 IR Inten    --    156.3065

 - Thermochemistry -
 -------------------
 Temperature   298.150 Kelvin.  Pressure   1.00000 Atm.
 Atom     1 has atomic number 11 and mass  22.98977

 Molecular mass:    23.99759 amu.
 Principal axes and moments of inertia in atomic units:
                           1         2         3
     Eigenvalues --     0.00000  12.28092  12.28092
           X            0.00000   0.00000   1.00000
           Y            0.00000   1.00000   0.00000
           Z            1.00000   0.00000   0.00000
 This molecule is a prolate symmetric top.
 Rotational symmetry number  1.
 Rotational temperature (Kelvin)      7.05273
 Rotational constant (GHZ):         146.954940
 Zero-point vibrational energy       6988.0 (Joules/Mol)
                                    1.67018 (Kcal/Mol)
 Vibrational temperatures:   1680.93
          (Kelvin)

 Zero-point correction=                           0.002662 (Hartree/Particle)
 Thermal correction to Energy=                    0.005041
 Thermal correction to Enthalpy=                  0.005985
 Thermal correction to Gibbs Free Energy=        -0.015366
 Sum of electronic and zero-point Energies=           -162.848919
 Sum of electronic and thermal Energies=              -162.846540
 Sum of electronic and thermal Enthalpies=            -162.845596
 Sum of electronic and thermal Free Energies=         -162.866947

                     E (Thermal)             CV                S
                      KCal/Mol        Cal/Mol-Kelvin    Cal/Mol-Kelvin
 Total                    3.163              5.195             44.939
 Electronic               0.000              0.000              0.000
 Translational            0.889              2.981             35.464
 Rotational               0.592              1.987              9.428
 Vibrational              1.682              0.227              0.047

 Optimization completed.
    -- Stationary point found.

 1\1\GINC-IP-172-31-36-226\Freq\RB3LYP\Gen\H1Na1\UBUNTU\14-Sep-2023\0\\
 #N Geom=AllCheck Guess=TCheck SCRF=Check GenChk RB3LYP/ChkBas Freq\\Ti
 tle Card Required\\0,1\Na,0.,0.,0.157275\H,0.,0.,-1.730023\\Version=EM
 64L-G16RevB.01\State=1-SG\HF=-162.8515808\RMSD=0.000e+00\RMSF=1.577e-0
 5\ZeroPoint=0.0026616\Thermal=0.0050411\Dipole=0.,0.,2.378696\DipoleDe
 riv=0.6668334,0.,0.,0.,0.6668334,0.,0.,0.,0.3934495,-0.6668334,0.,0.,0
 .,-0.6668334,0.,0.,0.,-0.3934495\Polar=38.3179991,0.,38.3179991,0.,0.,
 48.277777\Quadrupole=1.5316158,1.5316158,-3.0632316,0.,0.,0.\PG=C*V [C

 Normal termination of Gaussian 16 at Thu Sep 14 07:17:24 2023.
