 Gaussian 16, Revision B.01,
 Gaussian 16:  EM64L-G16RevB.01 20-Dec-2017

 ----------------------------------------------------------------------
 # opt freq b3lyp/gen empiricaldispersion=gd3 pseudo=read scf=maxcycle=
 1000 volume
 ----------------------------------------------------------------------

 -------------------
 Title Card Required
 -------------------
 Symbolic Z-matrix:
 Charge =  0 Multiplicity = 1

 SCF Done:  E(RB3LYP) =  -395.400341241     A.U. after   15 cycles
 SCF Done:  E(RB3LYP) =  -395.400341716     A.U. after    8 cycles
 SCF Done:  E(RB3LYP) =  -395.400341858     A.U. after    7 cycles
 Optimization completed.
    -- Stationary point found.
 Normal termination of Gaussian 16 at Thu Sep 14 07:25:23 2023.

 ------------------------------------------------------------------
 #N Geom=AllCheck Guess=TCheck SCRF=Check GenChk RB3LYP/ChkBas Freq
 ------------------------------------------------------------------

 Structure from the checkpoint file:  "NaOtBu-vol.chk"
 -------------------
 Title Card Required
 -------------------
 Charge =  0 Multiplicity = 1

                         Standard orientation:
 ---------------------------------------------------------------------
 Center     Atomic      Atomic             Coordinates (Angstroms)
 Number     Number       Type             X           Y           Z
 ---------------------------------------------------------------------
      1          6           0       -0.625129    0.000261    0.000000
      2          6           0       -1.154267   -0.727139    1.259904
      3          1           0       -2.252755   -0.753090    1.305133
      4          1           0       -0.780888   -1.759328    1.271359
      5          1           0       -0.780718   -0.220976    2.159459
      6          6           0       -1.154267   -0.727139   -1.259904
      7          1           0       -2.252755   -0.753090   -1.305133
      8          1           0       -0.780718   -0.220976   -2.159459
      9          1           0       -0.780888   -1.759328   -1.271359
     10          6           0       -1.154267    1.455054    0.000000
     11          1           0       -0.780848    1.981027    0.888176
     12          1           0       -0.780848    1.981027   -0.888176
     13          1           0       -2.252742    1.507151    0.000000
     14          8           0        0.757183    0.000209    0.000000
     15         11           0        2.719388   -0.000937    0.000000
 ---------------------------------------------------------------------

 SCF Done:  E(RB3LYP) =  -395.400341858     A.U. after    1 cycles

 The electronic state is 1-A'.
 Alpha  occ. eigenvalues --  -38.50707 -19.02100 -10.17927 -10.12148 -10.12147
 Alpha  occ. eigenvalues --  -10.12144  -2.24050  -1.17301  -1.17301  -1.17088
 Alpha  occ. eigenvalues --   -0.88585  -0.71104  -0.63982  -0.63982  -0.48134
 Alpha  occ. eigenvalues --   -0.39719  -0.39510  -0.39510  -0.34977  -0.34976
 Alpha  occ. eigenvalues --   -0.32217  -0.30625  -0.29314  -0.29313  -0.17420
 Alpha  occ. eigenvalues --   -0.17420
 Alpha virt. eigenvalues --   -0.06727   0.00419   0.00419   0.01763   0.04814
 Alpha virt. eigenvalues --    0.05887   0.05900   0.05900   0.08813   0.08877
 Alpha virt. eigenvalues --    0.08877   0.10961   0.10962   0.11195   0.12820

 Mulliken charges:
               1
     1  C   -0.078275
     2  C   -0.553748
     3  H    0.181013
     4  H    0.190144
     5  H    0.190166
     6  C   -0.553748
     7  H    0.181013
     8  H    0.190166
     9  H    0.190144
    10  C   -0.553667
    11  H    0.190161
    12  H    0.190161
    13  H    0.181017
    14  O   -0.906033
    15  Na   0.961488
 Sum of Mulliken charges =   0.00000

 Dipole moment (field-independent basis, Debye):
    X=              8.1100    Y=             -0.0042    Z=              0.0000  Tot=              8.1100
 Quadrupole moment (field-independent basis, Debye-Ang):
   XX=            -11.8030   YY=            -41.8983   ZZ=            -41.8984
   XY=             -0.0121   XZ=              0.0000   YZ=              0.0000

  Exact polarizability:  76.736  -0.015  69.360   0.000   0.000  69.360
 Approx polarizability:  95.011  -0.011  84.648   0.000   0.000  84.648

                      1                      2                      3
                     A"                     A'                     A"
 Frequencies --     44.1673                44.3658               227.8872
 Red. masses --      5.2417                 5.2445                 1.0118
 Frc consts  --      0.0060                 0.0061                 0.0310
 IR Inten    --     30.6482                30.6440                 0.0000

                      4                      5                      6
                     A"                     A'                     A'
 Frequencies --    288.5524               289.4024               322.7537
 Red. masses --      1.0478                 1.0475                 4.3519
 Frc consts  --      0.0514                 0.0517                 0.2671
 IR Inten    --      0.0229                 0.0224                13.7273

                      7                      8                      9
                     A'                     A"                     A'
 Frequencies --    348.1477               348.1865               479.2482
 Red. masses --      2.4846                 2.4833                 2.9530
 Frc consts  --      0.1774                 0.1774                 0.3996
 IR Inten    --      3.2224                 3.2196                 7.2426

                     10                     11                     12
                     A"                     A'                     A'
 Frequencies --    479.3698               509.1328               761.1251
 Red. masses --      2.9539                 3.0390                 3.4021
 Frc consts  --      0.3999                 0.4641                 1.1612
 IR Inten    --      7.2439                19.2330                 0.2096

                     13                     14                     15
                     A"                     A'                     A"
 Frequencies --    885.9472               886.0348               953.4408
 Red. masses --      1.7618                 1.7619                 1.1955
 Frc consts  --      0.8148                 0.8149                 0.6403
 IR Inten    --      2.9787                 2.9777                 0.0000

                     16                     17                     18
                     A"                     A'                     A'
 Frequencies --   1043.7434              1043.7920              1052.5643
 Red. masses --      1.3840                 1.3842                 2.5237
 Frc consts  --      0.8883                 0.8885                 1.6474
 IR Inten    --      0.0298                 0.0305                90.7528

                     19                     20                     21
                     A'                     A"                     A'
 Frequencies --   1237.0725              1237.0845              1258.2528
 Red. masses --      2.6838                 2.6834                 3.6961
 Frc consts  --      2.4198                 2.4195                 3.4477
 IR Inten    --     13.2873                13.2902               206.2331

                     22                     23                     24
                     ?A                     ?A                     A'
 Frequencies --   1394.9039              1394.9040              1421.3587
 Red. masses --      1.2579                 1.2577                 1.2275
 Frc consts  --      1.4420                 1.4418                 1.4612
 IR Inten    --     13.3848                13.3705                 1.6655

                     25                     26                     27
                     A"                     A'                     A"
 Frequencies --   1490.0007              1502.1222              1502.2305
 Red. masses --      1.0526                 1.0466                 1.0466
 Frc consts  --      1.3768                 1.3913                 1.3916
 IR Inten    --      0.0000                 0.1990                 0.2152

                     28                     29                     30
                     A"                     A'                     A'
 Frequencies --   1513.3860              1513.4356              1534.1929
 Red. masses --      1.0562                 1.0562                 1.0513
 Frc consts  --      1.4253                 1.4254                 1.4579
 IR Inten    --      5.3544                 5.3670                 0.9424

                     31                     32                     33
                     A"                     A'                     A'
 Frequencies --   3009.4103              3009.4404              3021.8360
 Red. masses --      1.0349                 1.0349                 1.0352
 Frc consts  --      5.5221                 5.5222                 5.5696
 IR Inten    --     62.8822                62.9293                43.5332

                     34                     35                     36
                     A"                     A'                     A"
 Frequencies --   3073.2208              3073.2590              3084.8687
 Red. masses --      1.0997                 1.0997                 1.1037
 Frc consts  --      6.1195                 6.1196                 6.1886
 IR Inten    --      6.4006                 6.4349                 0.0022

                     37                     38                     39
                     A'                     A'                     A"
 Frequencies --   3085.5667              3092.4215              3092.4595
 Red. masses --      1.0993                 1.1012                 1.1013
 Frc consts  --      6.1666                 6.2049                 6.2051
 IR Inten    --    154.9071                86.2946                86.3522

 - Thermochemistry -
 -------------------
 Temperature   298.150 Kelvin.  Pressure   1.00000 Atm.
 Atom     1 has atomic number  6 and mass  12.00000

 Molecular mass:    96.05511 amu.
 Principal axes and moments of inertia in atomic units:
                           1         2         3
     Eigenvalues --   398.364491087.705331087.71134
           X            1.00000   0.00000   0.00037
           Y           -0.00037   0.00000   1.00000
           Z            0.00000   1.00000   0.00000
 This molecule is an asymmetric top.
 Rotational symmetry number  1.
 Rotational temperatures (Kelvin)      0.21742     0.07963     0.07963
 Rotational constants (GHZ):           4.53038     1.65922     1.65921
 Zero-point vibrational energy     326277.2 (Joules/Mol)
                                   77.98212 (Kcal/Mol)
 Warning -- explicit consideration of  11 degrees of freedom as
           vibrations may cause significant error
 Vibrational temperatures:     63.55    63.83   327.88   415.16   416.39
          (Kelvin)            464.37   500.91   500.96   689.53   689.71
                              732.53  1095.09  1274.68  1274.81  1371.79
                             1501.71  1501.78  1514.41  1779.87  1779.89
                             1810.35  2006.96  2006.96  2045.02  2143.78
                             2161.22  2161.37  2177.42  2177.50  2207.36
                             4329.87  4329.91  4347.75  4421.68  4421.73
                             4438.44  4439.44  4449.30  4449.36

 Zero-point correction=                           0.124272 (Hartree/Particle)
 Thermal correction to Energy=                    0.132435
 Thermal correction to Enthalpy=                  0.133379
 Thermal correction to Gibbs Free Energy=         0.091079
 Sum of electronic and zero-point Energies=           -395.276069
 Sum of electronic and thermal Energies=              -395.267907
 Sum of electronic and thermal Enthalpies=            -395.266963
 Sum of electronic and thermal Free Energies=         -395.309263

                     E (Thermal)             CV                S
                      KCal/Mol        Cal/Mol-Kelvin    Cal/Mol-Kelvin
 Total                   83.104             28.175             89.027
 Electronic               0.000              0.000              0.000
 Translational            0.889              2.981             39.598
 Rotational               0.889              2.981             27.646
 Vibrational             81.327             22.214             21.783
 Vibration     1          0.595              1.980              5.063
 Vibration     2          0.595              1.980              5.054
 Vibration     3          0.651              1.798              1.896
 Vibration     4          0.685              1.695              1.482
 Vibration     5          0.686              1.693              1.477
 Vibration     6          0.708              1.630              1.296
 Vibration     7          0.726              1.579              1.175
 Vibration     8          0.726              1.579              1.174
 Vibration     9          0.836              1.296              0.712
 Vibration    10          0.836              1.296              0.712
 Vibration    11          0.864              1.230              0.636

                           ! Non-Optimized Parameters !
 Normal termination of Gaussian 16 at Thu Sep 14 07:25:50 2023.
