 Gaussian 16, Revision B.01,
 Gaussian 16:  EM64L-G16RevB.01 20-Dec-2017

 ----------------------------------------------------------------------
 # opt freq b3lyp/gen scf=(qc,maxcycle=1000) empiricaldispersion=gd3 ps
 eudo=read volume
 ----------------------------------------------------------------------

 ----
 NaOH
 ----
 Symbolic Z-matrix:
 Charge =  0 Multiplicity = 1

 SCF Done:  E(RB3LYP) =  -238.129085530     a.u. after    9 cycles
 Optimization completed.
    -- Stationary point found.
 Normal termination of Gaussian 16 at Thu Sep 14 07:24:20 2023.

 ------------------------------------------------------------------
 #N Geom=AllCheck Guess=TCheck SCRF=Check GenChk RB3LYP/ChkBas Freq
 ------------------------------------------------------------------

 Structure from the checkpoint file:  "NAOH-6-31-GEN-vol.chk"
 ----
 NaOH
 ----
 Charge =  0 Multiplicity = 1

                         Standard orientation:
 ---------------------------------------------------------------------
 Center     Atomic      Atomic             Coordinates (Angstroms)
 Number     Number       Type             X           Y           Z
 ---------------------------------------------------------------------
      1          8           0        0.000000    0.000000    1.027577
      2          1           0        0.000000    0.000000    1.989787
      3         11           0        0.000000    0.000000   -0.928218
 ---------------------------------------------------------------------

 SCF Done:  E(RB3LYP) =  -238.129085530     a.u. after    1 cycles

 The electronic state is 1-SG.
 Alpha  occ. eigenvalues --  -38.49020 -19.00745  -2.22868  -1.16100  -1.16100
 Alpha  occ. eigenvalues --   -1.15873  -0.81880  -0.33671  -0.18031  -0.18031
 Alpha virt. eigenvalues --   -0.06083   0.01237   0.01237   0.02648   0.07389
 Alpha virt. eigenvalues --    0.13959   0.13959   0.18004   0.21471   0.23876
 Alpha virt. eigenvalues --    0.23876   0.33132   0.66603   1.17817   1.25215

 Mulliken charges:
               1
     1  O   -1.362603
     2  H    0.451236
     3  Na   0.911367
 Sum of Mulliken charges =   0.00000

 Dipole moment (field-independent basis, Debye):
    X=              0.0000    Y=              0.0000    Z=             -6.7120  Tot=              6.7120
 Quadrupole moment (field-independent basis, Debye-Ang):
   XX=            -13.1473   YY=            -13.1473   ZZ=             -5.9583
   XY=              0.0000   XZ=              0.0000   YZ=              0.0000

  Exact polarizability:  16.319   0.000  16.319   0.000   0.000  19.629
 Approx polarizability:  14.552   0.000  14.552   0.000   0.000  21.392

                      1                      2                      3
                     PI                     PI                     SG
 Frequencies --    220.8237               220.8238               557.5567
 Red. masses --      1.1492                 1.1492                11.4097
 Frc consts  --      0.0330                 0.0330                 2.0898
 IR Inten    --    110.4876               110.4876                75.2487

                      4
                     SG
 Frequencies --   3885.6761
 Red. masses --      1.0688
 Frc consts  --      9.5081
 IR Inten    --     11.4928

 - Thermochemistry -
 -------------------
 Temperature   298.150 Kelvin.  Pressure   1.00000 Atm.
 Atom     1 has atomic number  8 and mass  15.99491

 Molecular mass:    39.99251 amu.
 Principal axes and moments of inertia in atomic units:
                           1         2         3
     Eigenvalues --     0.00000 144.54670 144.54670
           X            0.00000   0.92393  -0.38256
           Y            0.00000   0.38256   0.92393
           Z            1.00000   0.00000   0.00000
 This molecule is a prolate symmetric top.
 Rotational symmetry number  1.
 Rotational temperature (Kelvin)      0.59921
 Rotational constant (GHZ):          12.485523
 Zero-point vibrational energy      29218.1 (Joules/Mol)
                                    6.98329 (Kcal/Mol)
 Warning -- explicit consideration of   3 degrees of freedom as
           vibrations may cause significant error
 Vibrational temperatures:    317.72   317.72   802.20  5590.62
          (Kelvin)

 Zero-point correction=                           0.011129 (Hartree/Particle)
 Thermal correction to Energy=                    0.014732
 Thermal correction to Enthalpy=                  0.015676
 Thermal correction to Gibbs Free Energy=        -0.010811
 Sum of electronic and zero-point Energies=           -238.117957
 Sum of electronic and thermal Energies=              -238.114354
 Sum of electronic and thermal Enthalpies=            -238.113410
 Sum of electronic and thermal Free Energies=         -238.139897

                     E (Thermal)             CV                S
                      KCal/Mol        Cal/Mol-Kelvin    Cal/Mol-Kelvin
 Total                    9.244              9.710             55.747
 Electronic               0.000              0.000              0.000
 Translational            0.889              2.981             36.986
 Rotational               0.592              1.987             14.327
 Vibrational              7.763              4.742              4.433
 Vibration     1          0.648              1.809              1.952
 Vibration     2          0.648              1.809              1.952
 Vibration     3          0.913              1.123              0.529

 Optimization completed.
    -- Stationary point found.
 Normal termination of Gaussian 16 at Thu Sep 14 07:24:23 2023.
