 Gaussian 09, Revision D.01,
 Gaussian 09:  EM64W-G09RevD.01 13-Apr-2013

 --------------------------------------------------------------------
 # opt freq b3lyp/6-31+g(d) geom=connectivity empiricaldispersion=gd3
 --------------------------------------------------------------------

 -------------------
 Title Card Required
 -------------------
 Symbolic Z-matrix:
 Charge =  0 Multiplicity = 1

 SCF Done:  E(RB3LYP) =  -615.620897651     A.U. after   15 cycles
 SCF Done:  E(RB3LYP) =  -615.652768089     A.U. after   15 cycles
 SCF Done:  E(RB3LYP) =  -615.649489973     A.U. after   16 cycles
 SCF Done:  E(RB3LYP) =  -615.655596794     A.U. after   14 cycles
 SCF Done:  E(RB3LYP) =  -615.658931593     A.U. after   15 cycles
 SCF Done:  E(RB3LYP) =  -615.659500460     A.U. after   14 cycles
 SCF Done:  E(RB3LYP) =  -615.656287434     A.U. after   16 cycles
 SCF Done:  E(RB3LYP) =  -615.659512787     A.U. after   12 cycles
 SCF Done:  E(RB3LYP) =  -615.659285957     A.U. after   15 cycles
 SCF Done:  E(RB3LYP) =  -615.659551269     A.U. after   15 cycles
 SCF Done:  E(RB3LYP) =  -615.659446691     A.U. after   15 cycles
 SCF Done:  E(RB3LYP) =  -615.659616946     A.U. after   13 cycles
 SCF Done:  E(RB3LYP) =  -615.659643965     A.U. after   14 cycles
 SCF Done:  E(RB3LYP) =  -615.659654824     A.U. after   12 cycles
 SCF Done:  E(RB3LYP) =  -615.659656281     A.U. after   11 cycles
 SCF Done:  E(RB3LYP) =  -615.659656563     A.U. after   10 cycles
 SCF Done:  E(RB3LYP) =  -615.659656570     A.U. after   10 cycles
 Optimization completed.
    -- Stationary point found.
 Normal termination of Gaussian 09 at Sat Aug 26 01:55:38 2023.

 ---------------------------------------------------------------------
 #N Geom=AllCheck Guess=TCheck SCRF=Check GenChk RB3LYP/6-31+G(d) Freq
 ---------------------------------------------------------------------

 Structure from the checkpoint file:  "D:\machine learning\molecule_49.chk"
 -------------------
 Title Card Required
 -------------------
 Charge =  0 Multiplicity = 1

                         Standard orientation:
 ---------------------------------------------------------------------
 Center     Atomic      Atomic             Coordinates (Angstroms)
 Number     Number       Type             X           Y           Z
 ---------------------------------------------------------------------
      1          6           0        5.434651   -1.210633   -0.000268
      2          6           0        3.324678   -0.000035   -0.000011
      3          6           0        4.040923    1.216273    0.000296
      4          6           0        5.434594    1.210671    0.000323
      5          6           0        6.136273    0.000033    0.000044
      6          1           0        5.975412   -2.153487   -0.000486
      7          1           0        3.493077    2.154000    0.000511
      8          1           0        5.975314    2.153548    0.000556
      9          6           0        1.902542   -0.000033   -0.000048
     10          6           0        0.680223   -0.000023   -0.000051
     11          6           0       -0.680228    0.000013   -0.000047
     12          6           0       -1.902545    0.000049   -0.000049
     13          6           0       -3.324677    0.000060   -0.000009
     14          6           0       -4.040985    1.216305   -0.000305
     15          6           0       -5.434668    1.210622   -0.000269
     16          1           0       -3.493212    2.154076   -0.000555
     17          6           0       -5.434575   -1.210684    0.000323
     18          6           0       -6.136272   -0.000046    0.000050
     19          1           0       -5.975429    2.153475   -0.000492
     20          1           0       -5.975294   -2.153562    0.000555
     21          6           0        4.040976   -1.216299   -0.000302
     22          1           0        3.493182   -2.154057   -0.000547
     23          1           0       -7.223076   -0.000095    0.000079
     24          1           0        7.223077    0.000056    0.000068
     25          6           0       -4.040912   -1.216268    0.000292
     26          1           0       -3.493043   -2.153982    0.000496
 ---------------------------------------------------------------------

 SCF Done:  E(RB3LYP) =  -615.659656570     A.U. after    1 cycles

 The electronic state is 1-A.
 Alpha  occ. eigenvalues --  -10.23053 -10.23053 -10.21452 -10.21391 -10.21080
 Alpha  occ. eigenvalues --  -10.21073 -10.21031 -10.21031 -10.21030 -10.21030
 Alpha  occ. eigenvalues --  -10.20866 -10.20866 -10.20766 -10.20766 -10.20752
 Alpha  occ. eigenvalues --  -10.20752  -0.87474  -0.87431  -0.81082  -0.79276
 Alpha  occ. eigenvalues --   -0.76599  -0.76176  -0.76176  -0.72545  -0.65464
 Alpha  occ. eigenvalues --   -0.62989  -0.62059  -0.62055  -0.59181  -0.54902
 Alpha  occ. eigenvalues --   -0.54017  -0.49492  -0.49149  -0.46854  -0.46788
 Alpha  occ. eigenvalues --   -0.44848  -0.44712  -0.43667  -0.43664  -0.39568
 Alpha  occ. eigenvalues --   -0.38995  -0.37274  -0.37212  -0.36635  -0.36264
 Alpha  occ. eigenvalues --   -0.35141  -0.34223  -0.30966  -0.26932  -0.26817
 Alpha  occ. eigenvalues --   -0.26816  -0.25125  -0.21777
 Alpha virt. eigenvalues --   -0.07230  -0.02468  -0.02307  -0.02305  -0.02286
 Alpha virt. eigenvalues --    0.00077   0.00452   0.02125   0.02197   0.02461
 Alpha virt. eigenvalues --    0.03376   0.03909   0.04498   0.04545   0.05464

 Mulliken charges:
               1
     1  C   -0.013750
     2  C   -0.010381
     3  C   -0.317562
     4  C   -0.013733
     5  C   -0.201997
     6  H    0.184227
     7  H    0.196076
     8  H    0.184227
     9  C   -1.143057
    10  C    1.074541
    11  C    1.074549
    12  C   -1.143063
    13  C   -0.010383
    14  C   -0.317421
    15  C   -0.013744
    16  H    0.196074
    17  C   -0.013740
    18  C   -0.201997
    19  H    0.184227
    20  H    0.184227
    21  C   -0.317462
    22  H    0.196075
    23  H    0.182797
    24  H    0.182797
    25  C   -0.317601
    26  H    0.196077
 Sum of Mulliken charges =   0.00000

 Dipole moment (field-independent basis, Debye):
    X=              0.0000    Y=              0.0000    Z=              0.0001  Tot=              0.0001
 Quadrupole moment (field-independent basis, Debye-Ang):
   XX=            -63.4571   YY=            -82.7020   ZZ=           -100.3954
   XY=              0.0000   XZ=              0.0000   YZ=              0.0000

  Exact polarizability: 479.561   0.096 165.287  -0.057  -0.116  91.929
 Approx polarizability: 698.129  -0.005 274.318   0.000   0.000 132.701

                      1                      2                      3
                      A                      A                      A
 Frequencies --     16.5845                30.8032                34.9403
 Red. masses --      3.6439                 5.3880                 6.3740
 Frc consts  --      0.0006                 0.0030                 0.0046
 IR Inten    --      0.0010                 0.8359                 1.2608

                      4                      5                      6
                      A                      A                      A
 Frequencies --     81.7915                96.8536               195.1205
 Red. masses --      5.2940                 5.4765                 5.5352
 Frc consts  --      0.0209                 0.0303                 0.1242
 IR Inten    --      0.0006                 0.0000                 0.0880

                      7                      8                      9
                      A                      A                      A
 Frequencies --    223.9687               230.3956               320.9463
 Red. masses --      7.4116                 6.5845                 5.4240
 Frc consts  --      0.2190                 0.2059                 0.3292
 IR Inten    --      0.0363                 0.0001                 0.0001

                     10                     11                     12
                      A                      A                      A
 Frequencies --    409.5061               410.9842               435.1556
 Red. masses --      2.9106                 2.9112                 4.2762
 Frc consts  --      0.2876                 0.2897                 0.4771
 IR Inten    --      0.0175                 0.0011                 6.3603

                     13                     14                     15
                      A                      A                      A
 Frequencies --    465.2830               475.0614               517.8975
 Red. masses --      7.3352                 8.2757                 7.9817
 Frc consts  --      0.9356                 1.1004                 1.2613
 IR Inten    --      0.0102                19.3519                 2.7812

                     16                     17                     18
                      A                      A                      A
 Frequencies --    528.1532               611.5221               620.3573
 Red. masses --      3.5295                 4.3316                 8.1248
 Frc consts  --      0.5801                 0.9544                 1.8422
 IR Inten    --      0.0091                15.9888                 0.0036

                     19                     20                     21
                      A                      A                      A
 Frequencies --    634.2909               646.0794               676.4238
 Red. masses --      6.5961                 8.6091                 6.8071
 Frc consts  --      1.5636                 2.1173                 1.8351
 IR Inten    --      0.0002                 0.0001                 0.0022

                     22                     23                     24
                      A                      A                      A
 Frequencies --    698.8224               699.3893               758.5169
 Red. masses --      1.9499                 1.9190                 2.0440
 Frc consts  --      0.5610                 0.5530                 0.6929
 IR Inten    --      0.2354                75.1656                 0.0006

                     25                     26                     27
                      A                      A                      A
 Frequencies --    774.1225               780.3845               801.6091
 Red. masses --      1.8585                 6.0358                 5.4483
 Frc consts  --      0.6562                 2.1657                 2.0627
 IR Inten    --     89.1629                 7.8178                 0.0002

                     28                     29                     30
                      A                      A                      A
 Frequencies --    851.9563               852.0551               931.5299
 Red. masses --      1.2489                 1.2474                 1.4149
 Frc consts  --      0.5341                 0.5336                 0.7234
 IR Inten    --      0.0031                 0.0001                 0.1531

                     31                     32                     33
                      A                      A                      A
 Frequencies --    931.5614               979.5670               979.7231
 Red. masses --      1.4114                 1.3651                 1.3655
 Frc consts  --      0.7216                 0.7718                 0.7722
 IR Inten    --      5.3179                 0.0045                 0.0059

                     34                     35                     36
                      A                      A                      A
 Frequencies --    997.8812              1002.7073              1002.7414
 Red. masses --      7.3577                 1.2855                 1.2854
 Frc consts  --      4.3167                 0.7615                 0.7615
 IR Inten    --      0.0036                 0.0014                 0.0513

                     37                     38                     39
                      A                      A                      A
 Frequencies --   1012.2069              1015.8766              1051.9833
 Red. masses --      6.2564                 6.7871                 2.2550
 Frc consts  --      3.7767                 4.1268                 1.4703
 IR Inten    --      0.2660                 0.0080                11.9850

                     40                     41                     42
                      A                      A                      A
 Frequencies --   1057.8848              1109.6008              1109.6838
 Red. masses --      1.9575                 1.6275                 1.6273
 Frc consts  --      1.2907                 1.1806                 1.1806
 IR Inten    --      0.0001                 3.0126                 6.7072

                     43                     44                     45
                      A                      A                      A
 Frequencies --   1200.6014              1200.6167              1215.2968
 Red. masses --      1.1084                 1.1084                 1.2034
 Frc consts  --      0.9413                 0.9414                 1.0472
 IR Inten    --      0.0158                 0.0164                 0.1997

                     46                     47                     48
                      A                      A                      A
 Frequencies --   1217.0636              1232.8920              1325.1290
 Red. masses --      1.1435                 3.4637                 3.3498
 Frc consts  --      0.9980                 3.1020                 3.4657
 IR Inten    --      0.0000                 8.6237                 0.0394

                     49                     50                     51
                      A                      A                      A
 Frequencies --   1325.2704              1364.4536              1364.4871
 Red. masses --      3.3458                 1.6801                 1.6842
 Frc consts  --      3.4622                 1.8429                 1.8475
 IR Inten    --      0.2434                 0.2832                 0.7311

                     52                     53                     54
                      A                      A                      A
 Frequencies --   1386.8693              1480.8338              1480.9970
 Red. masses --      4.2218                 2.1902                 2.1922
 Frc consts  --      4.7843                 2.8297                 2.8330
 IR Inten    --      0.0126                 8.1024                 0.6470

                     55                     56                     57
                      A                      A                      A
 Frequencies --   1529.5042              1541.0943              1615.1148
 Red. masses --      2.1327                 2.4808                 4.8988
 Frc consts  --      2.9395                 3.4714                 7.5292
 IR Inten    --     36.3474                 0.0000                 0.7326

                     58                     59                     60
                      A                      A                      A
 Frequencies --   1615.1873              1646.9042              1647.2241
 Red. masses --      4.9015                 5.2781                 5.2846
 Frc consts  --      7.5340                 8.4345                 8.4482
 IR Inten    --      1.5016                20.0198                 0.0714

                     61                     62                     63
                      A                      A                      A
 Frequencies --   2236.6083              2313.3729              3181.3939
 Red. masses --     11.9982                11.9955                 1.0856
 Frc consts  --     35.3627                37.8233                 6.4740
 IR Inten    --      0.3111                 0.0008                 4.6407

                     64                     65                     66
                      A                      A                      A
 Frequencies --   3181.7404              3190.4335              3190.4988
 Red. masses --      1.0857                 1.0887                 1.0888
 Frc consts  --      6.4757                 6.5293                 6.5297
 IR Inten    --      0.2240                 3.8236                 8.6642

                     67                     68                     69
                      A                      A                      A
 Frequencies --   3201.9809              3202.1985              3209.6258
 Red. masses --      1.0922                 1.0922                 1.0942
 Frc consts  --      6.5975                 6.5985                 6.6412
 IR Inten    --     11.9947                31.8084                 0.8833

                     70                     71                     72
                      A                      A                      A
 Frequencies --   3209.7031              3213.8255              3213.9777
 Red. masses --      1.0942                 1.0973                 1.0974
 Frc consts  --      6.6416                 6.6779                 6.6789
 IR Inten    --     42.0758                30.3230                 0.5715

 - Thermochemistry -
 -------------------
 Temperature   298.150 Kelvin.  Pressure   1.00000 Atm.
 Atom     1 has atomic number  6 and mass  12.00000

 Molecular mass:   202.07825 amu.
 Principal axes and moments of inertia in atomic units:
                           1         2         3
     Eigenvalues --   638.37009********************
           X            1.00000   0.00000   0.00000
           Y            0.00000   1.00000   0.00000
           Z            0.00000   0.00000   1.00000
 This molecule is an asymmetric top.
 Rotational symmetry number  1.
 Warning -- assumption of classical behavior for rotation
           may cause significant error
 Rotational temperatures (Kelvin)      0.13568     0.00644     0.00615
 Rotational constants (GHZ):           2.82711     0.13417     0.12809
 Zero-point vibrational energy     532319.2 (Joules/Mol)
                                  127.22734 (Kcal/Mol)
 Warning -- explicit consideration of  18 degrees of freedom as
           vibrations may cause significant error
 Vibrational temperatures:     23.86    44.32    50.27   117.68   139.35
          (Kelvin)            280.73   322.24   331.49   461.77   589.19
                              591.31   626.09   669.44   683.51   745.14
                              759.89   879.84   892.55   912.60   929.56
                              973.22  1005.45  1006.26  1091.34  1113.79
                             1122.80  1153.34  1225.77  1225.92  1340.26
                             1340.31  1409.38  1409.60  1435.73  1442.67
                             1442.72  1456.34  1461.62  1513.57  1522.06
                             1596.47  1596.59  1727.40  1727.42  1748.54
                             1751.08  1773.85  1906.56  1906.77  1963.14
                             1963.19  1995.39  2130.59  2130.82  2200.61
                             2217.29  2323.79  2323.89  2369.52  2369.99
                             3217.98  3328.42  4577.31  4577.81  4590.32
                             4590.41  4606.93  4607.24  4617.93  4618.04
                             4623.97  4624.19

 Zero-point correction=                           0.202750 (Hartree/Particle)
 Thermal correction to Energy=                    0.215547
 Thermal correction to Enthalpy=                  0.216491
 Thermal correction to Gibbs Free Energy=         0.160107
 Sum of electronic and zero-point Energies=           -615.456907
 Sum of electronic and thermal Energies=              -615.444110
 Sum of electronic and thermal Enthalpies=            -615.443166
 Sum of electronic and thermal Free Energies=         -615.499550

                     E (Thermal)             CV                S
                      KCal/Mol        Cal/Mol-Kelvin    Cal/Mol-Kelvin
 Total                  135.258             49.389            118.671
 Electronic               0.000              0.000              0.000
 Translational            0.889              2.981             41.815
 Rotational               0.889              2.981             33.159
 Vibrational            133.480             43.427             43.697
 Vibration     1          0.593              1.986              7.006
 Vibration     2          0.594              1.984              5.777
 Vibration     3          0.594              1.983              5.527
 Vibration     4          0.600              1.962              3.847
 Vibration     5          0.603              1.951              3.517
 Vibration     6          0.636              1.847              2.179
 Vibration     7          0.649              1.805              1.927
 Vibration     8          0.652              1.795              1.876
 Vibration     9          0.706              1.633              1.305
 Vibration    10          0.774              1.450              0.928
 Vibration    11          0.775              1.446              0.923
 Vibration    12          0.796              1.394              0.842
 Vibration    13          0.823              1.327              0.751
 Vibration    14          0.832              1.305              0.724
 Vibration    15          0.873              1.210              0.615
 Vibration    16          0.883              1.188              0.591
 Vibration    17          0.971              1.007              0.430
 Vibration    18          0.980              0.989              0.416

 Optimization completed.
    -- Stationary point found.
 Normal termination of Gaussian 09 at Sat Aug 26 02:20:30 2023.
