 Gaussian 09, Revision D.01,
 Gaussian 09:  EM64W-G09RevD.01 13-Apr-2013

 --------------------------------------------------------------------
 # opt freq b3lyp/6-31+g(d) geom=connectivity empiricaldispersion=gd3
 --------------------------------------------------------------------

 -------------------
 Title Card Required
 -------------------
 Symbolic Z-matrix:
 Charge =  0 Multiplicity = 1

 SCF Done:  E(RB3LYP) =  -654.945974725     A.U. after   15 cycles
 SCF Done:  E(RB3LYP) =  -654.975866106     A.U. after   13 cycles
 SCF Done:  E(RB3LYP) =  -654.980828642     A.U. after   14 cycles
 SCF Done:  E(RB3LYP) =  -654.970595584     A.U. after   16 cycles
 SCF Done:  E(RB3LYP) =  -654.981020144     A.U. after   14 cycles
 SCF Done:  E(RB3LYP) =  -654.979130751     A.U. after   15 cycles
 SCF Done:  E(RB3LYP) =  -654.981102729     A.U. after   12 cycles
 SCF Done:  E(RB3LYP) =  -654.980936335     A.U. after   13 cycles
 SCF Done:  E(RB3LYP) =  -654.981251976     A.U. after   11 cycles
 SCF Done:  E(RB3LYP) =  -654.981167459     A.U. after   13 cycles
 SCF Done:  E(RB3LYP) =  -654.981252834     A.U. after   13 cycles
 SCF Done:  E(RB3LYP) =  -654.981165049     A.U. after   13 cycles
 SCF Done:  E(RB3LYP) =  -654.981281502     A.U. after   12 cycles
 SCF Done:  E(RB3LYP) =  -654.981282720     A.U. after   11 cycles
 SCF Done:  E(RB3LYP) =  -654.981284243     A.U. after   13 cycles
 SCF Done:  E(RB3LYP) =  -654.981284477     A.U. after   10 cycles
 SCF Done:  E(RB3LYP) =  -654.981284491     A.U. after    8 cycles
 Optimization completed.
    -- Stationary point found.
 Normal termination of Gaussian 09 at Fri Aug 25 22:22:44 2023.

 ---------------------------------------------------------------------
 #N Geom=AllCheck Guess=TCheck SCRF=Check GenChk RB3LYP/6-31+G(d) Freq
 ---------------------------------------------------------------------

 Structure from the checkpoint file:  "D:\machine learning\molecule_47.chk"
 -------------------
 Title Card Required
 -------------------
 Charge =  0 Multiplicity = 1

                         Standard orientation:
 ---------------------------------------------------------------------
 Center     Atomic      Atomic             Coordinates (Angstroms)
 Number     Number       Type             X           Y           Z
 ---------------------------------------------------------------------
      1          6           0       -4.883350   -1.203450   -0.009450
      2          6           0       -2.769260   -0.000056   -0.005533
      3          6           0       -3.490978    1.212131   -0.007473
      4          6           0       -4.883293    1.203436   -0.009394
      5          6           0       -5.605790   -0.000007   -0.007482
      6          1           0       -5.420934   -2.149372   -0.014097
      7          1           0       -2.948648    2.153180   -0.010840
      8          1           0       -5.420862    2.149371   -0.013999
      9          6           0       -1.347916   -0.000069   -0.005447
     10          6           0       -0.125353   -0.000073   -0.004320
     11          6           0        1.235096   -0.000043   -0.002922
     12          6           0        2.457523    0.000008   -0.001327
     13          6           0        3.879645    0.000025    0.000667
     14          6           0        4.596292    1.216153    0.001684
     15          6           0        4.596292   -1.216117    0.001742
     16          6           0        5.989985    1.210533    0.003770
     17          1           0        4.048554    2.153959    0.000849
     18          6           0        5.989979   -1.210499    0.003829
     19          1           0        4.048542   -2.153915    0.000954
     20          6           0        6.691856    0.000019    0.004857
     21          1           0        6.530616    2.153500    0.004560
     22          1           0        6.530617   -2.153463    0.004662
     23          6           0       -3.491009   -1.212192   -0.007531
     24          1           0       -2.948730   -2.153270   -0.010940
     25          6           0       -7.115771    0.000111    0.027618
     26          1           0       -7.529306   -0.887814   -0.463424
     27          1           0       -7.482976    0.002297    1.063152
     28          1           0       -7.529227    0.886054   -0.467081
     29          1           0        7.778669    0.000012    0.006482
 ---------------------------------------------------------------------

 SCF Done:  E(RB3LYP) =  -654.981284491     A.U. after    2 cycles

 The electronic state is 1-A.
 Alpha  occ. eigenvalues --  -10.22888 -10.22591 -10.21484 -10.21221 -10.21112
 Alpha  occ. eigenvalues --  -10.20862 -10.20861 -10.20837 -10.20825 -10.20793
 Alpha  occ. eigenvalues --  -10.20792 -10.20709 -10.20619 -10.20603 -10.20268
 Alpha  occ. eigenvalues --  -10.20267 -10.19592  -0.87470  -0.87287  -0.81221
 Alpha  occ. eigenvalues --   -0.79768  -0.77172  -0.76020  -0.75909  -0.73429
 Alpha  occ. eigenvalues --   -0.70037  -0.64475  -0.62118  -0.61902  -0.61477
 Alpha  occ. eigenvalues --   -0.58698  -0.54620  -0.53497  -0.49161  -0.47894
 Alpha  occ. eigenvalues --   -0.47422  -0.46661  -0.44636  -0.43793  -0.43512
 Alpha  occ. eigenvalues --   -0.43301  -0.43110  -0.40004  -0.39231  -0.38253
 Alpha  occ. eigenvalues --   -0.37096  -0.36549  -0.36331  -0.35623  -0.34647
 Alpha  occ. eigenvalues --   -0.33964  -0.30371  -0.26665  -0.26584  -0.26321
 Alpha  occ. eigenvalues --   -0.24886  -0.21357
 Alpha virt. eigenvalues --   -0.06929  -0.02238  -0.02196  -0.02147  -0.02077
 Alpha virt. eigenvalues --    0.00239   0.00488   0.01691   0.02150   0.02487
 Alpha virt. eigenvalues --    0.02960   0.03403   0.04300   0.04561   0.05281

 Mulliken charges:
               1
     1  C   -0.207739
     2  C   -0.182970
     3  C   -0.177013
     4  C   -0.203647
     5  C    0.396818
     6  H    0.178254
     7  H    0.195660
     8  H    0.178264
     9  C   -1.189162
    10  C    1.094441
    11  C    1.121419
    12  C   -1.294850
    13  C    0.262867
    14  C   -0.463132
    15  C   -0.463210
    16  C    0.040120
    17  H    0.196453
    18  C    0.040066
    19  H    0.196455
    20  C   -0.195410
    21  H    0.183757
    22  H    0.183758
    23  C   -0.177869
    24  H    0.195658
    25  C   -0.741994
    26  H    0.210482
    27  H    0.229703
    28  H    0.210559
    29  H    0.182263
 Sum of Mulliken charges =   0.00000

 Dipole moment (field-independent basis, Debye):
    X=             -0.7923    Y=              0.0004    Z=              0.0509  Tot=              0.7939
 Quadrupole moment (field-independent basis, Debye-Ang):
   XX=            -65.5146   YY=            -89.6881   ZZ=           -106.6296
   XY=             -0.0022   XZ=             -0.3067   YZ=              0.0000

  Exact polarizability: 519.430  -0.005 173.286  -0.679   0.000 100.763
 Approx polarizability: 729.709  -0.001 288.634  -0.685   0.000 147.146

                      1                      2                      3
                      A                      A                      A
 Frequencies --     17.7201                21.8407                27.8016
 Red. masses --      3.4757                 1.0406                 5.1032
 Frc consts  --      0.0006                 0.0003                 0.0023
 IR Inten    --      0.0027                 0.2497                 0.8754

                      4                      5                      6
                      A                      A                      A
 Frequencies --     29.8195                77.3145                80.0800
 Red. masses --      5.5577                 5.2799                 5.0103
 Frc consts  --      0.0029                 0.0186                 0.0189
 IR Inten    --      1.1964                 0.0070                 0.0197

                      7                      8                      9
                      A                      A                      A
 Frequencies --    158.0297               216.3372               216.9097
 Red. masses --      5.0412                 7.1984                 6.2605
 Frc consts  --      0.0742                 0.1985                 0.1735
 IR Inten    --      0.1719                 0.0027                 0.0090

                     10                     11                     12
                      A                      A                      A
 Frequencies --    248.0370               344.3407               357.8393
 Red. masses --      4.9797                 2.9102                 5.0280
 Frc consts  --      0.1805                 0.2033                 0.3793
 IR Inten    --      0.1924                 0.0086                 0.3868

                     13                     14                     15
                      A                      A                      A
 Frequencies --    410.4789               412.2322               446.0809
 Red. masses --      2.9190                 2.9383                 6.2786
 Frc consts  --      0.2898                 0.2942                 0.7361
 IR Inten    --      0.0005                 0.0015                14.9204

                     16                     17                     18
                      A                      A                      A
 Frequencies --    451.5669               469.8307               519.5137
 Red. masses --      4.4324                 6.5295                 7.4447
 Frc consts  --      0.5325                 0.8492                 1.1838
 IR Inten    --     13.7166                 0.0008                 2.1090

                     19                     20                     21
                      A                      A                      A
 Frequencies --    527.6263               594.8643               623.4431
 Red. masses --      3.0003                 4.5410                 8.0236
 Frc consts  --      0.4921                 0.9468                 1.8374
 IR Inten    --      2.3555                12.9107                 0.0359

                     22                     23                     24
                      A                      A                      A
 Frequencies --    627.4068               643.4377               661.6334
 Red. masses --      5.7234                 8.0637                 7.5624
 Frc consts  --      1.3274                 1.9670                 1.9505
 IR Inten    --      2.0683                 0.0581                 0.0642

                     25                     26                     27
                      A                      A                      A
 Frequencies --    699.7381               718.6025               748.2703
 Red. masses --      1.9321                 3.2924                 5.5031
 Frc consts  --      0.5574                 1.0017                 1.8154
 IR Inten    --     37.5254                 2.3824                 2.0046

                     28                     29                     30
                      A                      A                      A
 Frequencies --    760.9363               822.6611               831.4935
 Red. masses --      1.8909                 4.6317                 1.5752
 Frc consts  --      0.6451                 1.8469                 0.6417
 IR Inten    --     39.9040                 5.7994                47.9101

                     31                     32                     33
                      A                      A                      A
 Frequencies --    846.6081               846.6290               851.8238
 Red. masses --      1.2498                 6.2190                 1.2482
 Frc consts  --      0.5278                 2.6264                 0.5336
 IR Inten    --      0.0179                 0.8624                 0.0000

                     34                     35                     36
                      A                      A                      A
 Frequencies --    932.9139               967.7649               975.7097
 Red. masses --      1.4694                 1.2974                 1.3585
 Frc consts  --      0.7535                 0.7159                 0.7620
 IR Inten    --      3.0687                 0.8751                 0.0006

                     37                     38                     39
                      A                      A                      A
 Frequencies --    979.3468               999.8178              1002.2512
 Red. masses --      1.3652                 7.5759                 1.2850
 Frc consts  --      0.7715                 4.4620                 0.7605
 IR Inten    --      0.0000                 0.1070                 0.0292

                     40                     41                     42
                      A                      A                      A
 Frequencies --   1014.4129              1020.5772              1040.0865
 Red. masses --      6.6242                 1.4048                 2.7828
 Frc consts  --      4.0162                 0.8621                 1.7737
 IR Inten    --      0.1832                 0.0327                 5.5886

                     43                     44                     45
                      A                      A                      A
 Frequencies --   1055.2752              1070.5965              1109.4773
 Red. masses --      2.0724                 1.5308                 1.6283
 Frc consts  --      1.3597                 1.0338                 1.1809
 IR Inten    --      3.6747                20.8464                 4.8576

                     46                     47                     48
                      A                      A                      A
 Frequencies --   1154.6620              1200.4502              1215.4603
 Red. masses --      1.3510                 1.1083                 1.2457
 Frc consts  --      1.0612                 0.9410                 1.0842
 IR Inten    --      4.8260                 0.0090                 0.6749

                     49                     50                     51
                      A                      A                      A
 Frequencies --   1220.8860              1234.3592              1241.2980
 Red. masses --      1.3757                 2.6731                 2.4888
 Frc consts  --      1.2082                 2.3997                 2.2594
 IR Inten    --      1.2042                 2.2937                14.5290

                     52                     53                     54
                      A                      A                      A
 Frequencies --   1323.1240              1324.8822              1349.9234
 Red. masses --      4.5203                 3.3616                 1.4932
 Frc consts  --      4.6625                 3.4765                 1.6032
 IR Inten    --      0.0822                 0.0769                 0.1148

                     55                     56                     57
                      A                      A                      A
 Frequencies --   1364.4249              1388.7062              1438.6375
 Red. masses --      1.6794                 4.4109                 1.2339
 Frc consts  --      1.8420                 5.0119                 1.5047
 IR Inten    --      0.4169                 0.3722                 0.7674

                     58                     59                     60
                      A                      A                      A
 Frequencies --   1448.4152              1480.9074              1510.0668
 Red. masses --      2.4996                 2.1902                 1.1090
 Frc consts  --      3.0896                 2.8300                 1.4900
 IR Inten    --      1.5013                 4.2101                10.1368

                     61                     62                     63
                      A                      A                      A
 Frequencies --   1512.4757              1533.7213              1555.2253
 Red. masses --      1.0526                 2.2338                 2.6284
 Frc consts  --      1.4187                 3.0959                 3.7457
 IR Inten    --      7.1907                35.9313                18.6317

                     64                     65                     66
                      A                      A                      A
 Frequencies --   1599.0306              1615.0159              1647.0363
 Red. masses --      5.0216                 4.8989                 5.2822
 Frc consts  --      7.5649                 7.5283                 8.4425
 IR Inten    --      0.5630                 1.1549                15.1120

                     67                     68                     69
                      A                      A                      A
 Frequencies --   1658.0799              2235.8285              2311.9789
 Red. masses --      5.4744                11.9985                11.9956
 Frc consts  --      8.8675                35.3389                37.7781
 IR Inten    --      7.5745                 1.6289                 9.3154

                     70                     71                     72
                      A                      A                      A
 Frequencies --   3034.1541              3090.5017              3116.8046
 Red. masses --      1.0406                 1.0952                 1.1028
 Frc consts  --      5.6443                 6.1634                 6.3118
 IR Inten    --     49.8144                21.9217                16.3746

                     73                     74                     75
                      A                      A                      A
 Frequencies --   3175.9283              3176.6618              3181.2325
 Red. masses --      1.0888                 1.0889                 1.0856
 Frc consts  --      6.4704                 6.4739                 6.4734
 IR Inten    --     13.5414                33.4683                 2.6572

                     76                     77                     78
                      A                      A                      A
 Frequencies --   3189.9350              3201.7002              3206.0793
 Red. masses --      1.0887                 1.0922                 1.0931
 Frc consts  --      6.5273                 6.5963                 6.6203
 IR Inten    --      6.4983                22.0577                18.0289

                     79                     80                     81
                      A                      A                      A
 Frequencies --   3207.6133              3209.3667              3213.5757
 Red. masses --      1.0941                 1.0942                 1.0973
 Frc consts  --      6.6324                 6.6400                 6.6768
 IR Inten    --      0.7144                22.2265                16.3904

 - Thermochemistry -
 -------------------
 Temperature   298.150 Kelvin.  Pressure   1.00000 Atm.
 Atom     1 has atomic number  6 and mass  12.00000

 Molecular mass:   216.09390 amu.
 Principal axes and moments of inertia in atomic units:
                           1         2         3
     Eigenvalues --   647.14714********************
           X            1.00000   0.00000  -0.00013
           Y            0.00000   1.00000   0.00000
           Z            0.00013   0.00000   1.00000
 This molecule is an asymmetric top.
 Rotational symmetry number  1.
 Warning -- assumption of classical behavior for rotation
           may cause significant error
 Rotational temperatures (Kelvin)      0.13384     0.00531     0.00511
 Rotational constants (GHZ):           2.78876     0.11061     0.10646
 Zero-point vibrational energy     604397.2 (Joules/Mol)
                                  144.45440 (Kcal/Mol)
 Warning -- explicit consideration of  20 degrees of freedom as
           vibrations may cause significant error
 Vibrational temperatures:     25.50    31.42    40.00    42.90   111.24
          (Kelvin)            115.22   227.37   311.26   312.08   356.87
                              495.43   514.85   590.59   593.11   641.81
                              649.70   675.98   747.46   759.14   855.88
                              896.99   902.70   925.76   951.94  1006.77
                             1033.91  1076.59  1094.82  1183.62  1196.33
                             1218.08  1218.11  1225.58  1342.25  1392.40
                             1403.83  1409.06  1438.51  1442.01  1459.51
                             1468.38  1496.45  1518.30  1540.35  1596.29
                             1661.30  1727.18  1748.77  1756.58  1775.97
                             1785.95  1903.68  1906.21  1942.24  1963.10
                             1998.04  2069.88  2083.94  2130.69  2172.65
                             2176.11  2206.68  2237.62  2300.65  2323.64
                             2369.71  2385.60  3216.85  3326.42  4365.47
                             4446.54  4484.38  4569.45  4570.50  4577.08
                             4589.60  4606.53  4612.83  4615.03  4617.56
                             4623.61

 Zero-point correction=                           0.230203 (Hartree/Particle)
 Thermal correction to Energy=                    0.244925
 Thermal correction to Enthalpy=                  0.245869
 Thermal correction to Gibbs Free Energy=         0.184059
 Sum of electronic and zero-point Energies=           -654.751082
 Sum of electronic and thermal Energies=              -654.736360
 Sum of electronic and thermal Enthalpies=            -654.735416
 Sum of electronic and thermal Free Energies=         -654.797226

                     E (Thermal)             CV                S
                      KCal/Mol        Cal/Mol-Kelvin    Cal/Mol-Kelvin
 Total                  153.693             55.390            130.090
 Electronic               0.000              0.000              0.000
 Translational            0.889              2.981             42.015
 Rotational               0.889              2.981             33.548
 Vibrational            151.915             49.428             54.527
 Vibration     1          0.593              1.986              6.875
 Vibration     2          0.593              1.985              6.459
 Vibration     3          0.593              1.984              5.980
 Vibration     4          0.594              1.984              5.841
 Vibration     5          0.599              1.964              3.958
 Vibration     6          0.600              1.963              3.889
 Vibration     7          0.621              1.894              2.573
 Vibration     8          0.645              1.816              1.990
 Vibration     9          0.646              1.815              1.985
 Vibration    10          0.662              1.766              1.744
 Vibration    11          0.723              1.587              1.192
 Vibration    12          0.733              1.559              1.131
 Vibration    13          0.775              1.447              0.925
 Vibration    14          0.776              1.444              0.919
 Vibration    15          0.805              1.370              0.808
 Vibration    16          0.810              1.357              0.791
 Vibration    17          0.827              1.317              0.738
 Vibration    18          0.875              1.207              0.611
 Vibration    19          0.883              1.189              0.593
 Vibration    20          0.953              1.043              0.459

 Normal termination of Gaussian 09 at Fri Aug 25 22:53:23 2023.
