 Gaussian 09, Revision D.01,
 Gaussian 09:  EM64W-G09RevD.01 13-Apr-2013

 --------------------------------------------------
 # opt freq b3lyp/6-31+g(d) empiricaldispersion=gd3
 --------------------------------------------------

 -------------------
 Title Card Required
 -------------------
 Symbolic Z-matrix:
 Charge =  0 Multiplicity = 1

 SCF Done:  E(RB3LYP) =  -999.078286546     A.U. after   15 cycles
 SCF Done:  E(RB3LYP) =  -999.093673108     A.U. after   14 cycles
 SCF Done:  E(RB3LYP) =  -999.086930015     A.U. after   16 cycles
 SCF Done:  E(RB3LYP) =  -999.093986587     A.U. after   13 cycles
 SCF Done:  E(RB3LYP) =  -999.094516345     A.U. after   13 cycles
 SCF Done:  E(RB3LYP) =  -999.094603408     A.U. after   13 cycles
 SCF Done:  E(RB3LYP) =  -999.094454737     A.U. after   16 cycles
 SCF Done:  E(RB3LYP) =  -999.094740765     A.U. after   12 cycles
 SCF Done:  E(RB3LYP) =  -999.094844057     A.U. after   13 cycles
 SCF Done:  E(RB3LYP) =  -999.094863986     A.U. after   13 cycles
 SCF Done:  E(RB3LYP) =  -999.094865360     A.U. after   10 cycles
 SCF Done:  E(RB3LYP) =  -999.094865486     A.U. after    9 cycles
 Optimization completed.
    -- Stationary point found.
 Normal termination of Gaussian 09 at Thu Aug 24 21:55:09 2023.

 ---------------------------------------------------------------------
 #N Geom=AllCheck Guess=TCheck SCRF=Check GenChk RB3LYP/6-31+G(d) Freq
 ---------------------------------------------------------------------

 Structure from the checkpoint file:  "D:\machine learning\molecule_15.chk"
 -------------------
 Title Card Required
 -------------------
 Charge =  0 Multiplicity = 1

                         Standard orientation:
 ---------------------------------------------------------------------
 Center     Atomic      Atomic             Coordinates (Angstroms)
 Number     Number       Type             X           Y           Z
 ---------------------------------------------------------------------
      1          6           0        5.109299   -1.210023    0.000004
      2          6           0        3.715268   -1.215113    0.000270
      3          6           0        2.998458   -0.000226    0.000179
      4          6           0        3.714942    1.214994   -0.000128
      5          6           0        5.108878    1.210349   -0.000378
      6          6           0        5.811280    0.000232   -0.000308
      7          1           0        5.649799   -2.153078    0.000035
      8          1           0        3.168312   -2.153500    0.000517
      9          1           0        3.167547    2.153120   -0.000156
     10          1           0        5.649189    2.153515   -0.000621
     11          1           0        6.898089    0.000455   -0.000531
     12          6           0        1.573135   -0.000308    0.000289
     13          6           0        0.355876   -0.000082    0.000336
     14          6           0       -1.068288   -0.000046    0.000216
     15          6           0       -1.788477   -1.212597   -0.000052
     16          6           0       -1.788426    1.212543    0.000338
     17          6           0       -3.181294   -1.215926   -0.000192
     18          1           0       -1.246714   -2.153610   -0.000126
     19          6           0       -3.181237    1.215937    0.000198
     20          1           0       -1.246617    2.153530    0.000531
     21          6           0       -3.868572    0.000018   -0.000062
     22          1           0       -3.731664   -2.151300   -0.000389
     23          1           0       -3.731572    2.151331    0.000282
     24         17           0       -5.625966    0.000060   -0.000224
 ---------------------------------------------------------------------

 SCF Done:  E(RB3LYP) =  -999.094865485     A.U. after    1 cycles

 The electronic state is 1-A.
 Alpha  occ. eigenvalues -- -101.56074 -10.26723 -10.23494 -10.22963 -10.21873
 Alpha  occ. eigenvalues --  -10.21872 -10.21812 -10.21811 -10.20979 -10.20978
 Alpha  occ. eigenvalues --  -10.20828 -10.20761 -10.20740 -10.20499 -10.20272
 Alpha  occ. eigenvalues --   -9.47589  -7.23993  -7.23027  -7.22993  -0.90385
 Alpha  occ. eigenvalues --   -0.87408  -0.85613  -0.79820  -0.77342  -0.77134
 Alpha  occ. eigenvalues --   -0.76153  -0.72261  -0.64284  -0.63565  -0.62039
 Alpha  occ. eigenvalues --   -0.61693  -0.56135  -0.54187  -0.49655  -0.48799
 Alpha  occ. eigenvalues --   -0.48781  -0.46745  -0.45698  -0.44744  -0.44632
 Alpha  occ. eigenvalues --   -0.43654  -0.41139  -0.39123  -0.39106  -0.37903
 Alpha  occ. eigenvalues --   -0.37173  -0.36255  -0.35927  -0.32262  -0.31859
 Alpha  occ. eigenvalues --   -0.28264  -0.27771  -0.27598  -0.26804  -0.22368
 Alpha virt. eigenvalues --   -0.06623  -0.03198  -0.02303  -0.01504  -0.00513
 Alpha virt. eigenvalues --    0.00474   0.01169   0.01655   0.02344   0.02548
 Alpha virt. eigenvalues --    0.03594   0.04275   0.04586   0.05012   0.05040

 Mulliken charges:
               1
     1  C   -0.131785
     2  C   -0.319939
     3  C    0.239131
     4  C   -0.319955
     5  C   -0.132129
     6  C   -0.208499
     7  H    0.183520
     8  H    0.192955
     9  H    0.192963
    10  H    0.183524
    11  H    0.182358
    12  C   -0.061993
    13  C   -0.023944
    14  C   -0.223208
    15  C   -0.072400
    16  C   -0.072954
    17  C   -0.481705
    18  H    0.199572
    19  C   -0.481647
    20  H    0.199568
    21  C    0.311455
    22  H    0.203482
    23  H    0.203481
    24  Cl   0.238149
 Sum of Mulliken charges =   0.00000

 Dipole moment (field-independent basis, Debye):
    X=              2.1012    Y=              0.0001    Z=             -0.0002  Tot=              2.1012
 Quadrupole moment (field-independent basis, Debye-Ang):
   XX=            -90.4702   YY=            -82.7120   ZZ=           -100.7851
   XY=              0.0003   XZ=             -0.0023   YZ=              0.0001

  Exact polarizability: 373.626  -0.004 160.246  -0.004   0.014  88.607
 Approx polarizability: 515.502  -0.016 273.093  -0.008   0.000 130.558

                      1                      2                      3
                      A                      A                      A
 Frequencies --     24.4545                37.0877                37.8891
 Red. masses --      3.6359                 8.5294                 6.2862
 Frc consts  --      0.0013                 0.0069                 0.0053
 IR Inten    --      0.0000                 0.0910                 0.0653

                      4                      5                      6
                      A                      A                      A
 Frequencies --    105.2528               132.9195               207.9676
 Red. masses --      6.5868                 5.9806                 6.6381
 Frc consts  --      0.0430                 0.0623                 0.1692
 IR Inten    --      1.0375                 0.2563                 0.1197

                      7                      8                      9
                      A                      A                      A
 Frequencies --    222.1387               294.9796               339.9419
 Red. masses --      9.0402                 6.9433                 5.7271
 Frc consts  --      0.2628                 0.3560                 0.3899
 IR Inten    --      0.4579                 0.6802                 1.2133

                     10                     11                     12
                      A                      A                      A
 Frequencies --    411.5710               416.1744               435.3903
 Red. masses --      2.9101                 2.9823                 4.9298
 Frc consts  --      0.2904                 0.3043                 0.5506
 IR Inten    --      0.0000                 0.0000                 1.0221

                     13                     14                     15
                      A                      A                      A
 Frequencies --    436.0749               481.5279               531.0215
 Red. masses --     10.3595                 6.5243                 2.9561
 Frc consts  --      1.1607                 0.8913                 0.4911
 IR Inten    --     25.2491                 1.5701                23.3865

                     16                     17                     18
                      A                      A                      A
 Frequencies --    546.7693               571.3935               609.7366
 Red. masses --      7.9751                 4.1341                 7.6602
 Frc consts  --      1.4047                 0.7953                 1.6779
 IR Inten    --      0.0054                 2.2677                 0.4087

                     19                     20                     21
                      A                      A                      A
 Frequencies --    634.6584               649.5185               698.9242
 Red. masses --      6.5991                 7.3319                 1.9898
 Frc consts  --      1.5661                 1.8224                 0.5727
 IR Inten    --      0.0026                 0.3237                33.4072

                     22                     23                     24
                      A                      A                      A
 Frequencies --    713.5104               742.5524               769.4431
 Red. masses --      3.9523                 6.7219                 1.7602
 Frc consts  --      1.1855                 2.1837                 0.6140
 IR Inten    --      2.0272                17.9866                45.9501

                     25                     26                     27
                      A                      A                      A
 Frequencies --    832.8129               838.9956               851.7376
 Red. masses --      1.2473                 1.5530                 1.2491
 Frc consts  --      0.5097                 0.6441                 0.5339
 IR Inten    --      0.0000                57.4345                 0.0000

                     28                     29                     30
                      A                      A                      A
 Frequencies --    858.8296               929.0909               964.3411
 Red. masses --      6.0774                 1.4055                 1.3118
 Frc consts  --      2.6411                 0.7148                 0.7187
 IR Inten    --      1.8514                 2.9276                 0.0182

                     31                     32                     33
                      A                      A                      A
 Frequencies --    972.4349               978.7045              1001.9942
 Red. masses --      1.3505                 1.3659                 1.2828
 Frc consts  --      0.7524                 0.7708                 0.7588
 IR Inten    --      0.0000                 0.0000                 0.0340

                     34                     35                     36
                      A                      A                      A
 Frequencies --   1012.6284              1030.4425              1052.2549
 Red. masses --      6.2640                 3.8821                 2.2757
 Frc consts  --      3.7845                 2.4286                 1.4846
 IR Inten    --      0.0560                30.4400                 5.4832

                     37                     38                     39
                      A                      A                      A
 Frequencies --   1104.6715              1109.3889              1143.8396
 Red. masses --      3.2997                 1.6223                 1.3932
 Frc consts  --      2.3724                 1.1764                 1.0740
 IR Inten    --     75.1699                 5.2787                 5.5022

                     40                     41                     42
                      A                      A                      A
 Frequencies --   1164.3649              1200.3229              1216.9845
 Red. masses --      3.3511                 1.1084                 1.1449
 Frc consts  --      2.6768                 0.9409                 0.9990
 IR Inten    --      4.6111                 0.0041                 0.1056

                     43                     44                     45
                      A                      A                      A
 Frequencies --   1219.6931              1316.6669              1326.3842
 Red. masses --      1.1621                 8.0514                 3.3306
 Frc consts  --      1.0186                 8.2238                 3.4523
 IR Inten    --      0.0341                 0.2473                 0.1049

                     46                     47                     48
                      A                      A                      A
 Frequencies --   1334.1602              1348.4071              1364.1852
 Red. masses --      1.3098                 3.7780                 1.6938
 Frc consts  --      1.3737                 4.0472                 1.8572
 IR Inten    --      0.0291                 5.1688                 0.4278

                     49                     50                     51
                      A                      A                      A
 Frequencies --   1439.0373              1481.8959              1525.1142
 Red. masses --      2.7299                 2.1886                 2.1116
 Frc consts  --      3.3308                 2.8317                 2.8937
 IR Inten    --      4.3681                 3.9893                22.1132

                     52                     53                     54
                      A                      A                      A
 Frequencies --   1542.7152              1597.3742              1616.7978
 Red. masses --      2.5175                 6.5862                 4.9728
 Frc consts  --      3.5301                 9.9014                 7.6588
 IR Inten    --    107.2516                 0.0949                 1.3900

                     55                     56                     57
                      A                      A                      A
 Frequencies --   1638.6285              1652.0987              2307.2780
 Red. masses --      5.3487                 5.4400                11.9973
 Frc consts  --      8.4617                 8.7482                37.6298
 IR Inten    --     10.6757                 7.5035                 1.5073

                     58                     59                     60
                      A                      A                      A
 Frequencies --   3181.0747              3189.4478              3200.8527
 Red. masses --      1.0856                 1.0885                 1.0919
 Frc consts  --      6.4724                 6.5242                 6.5912
 IR Inten    --      2.4048                 5.1525                20.0821

                     61                     62                     63
                      A                      A                      A
 Frequencies --   3204.0907              3204.6485              3207.8687
 Red. masses --      1.0888                 1.0888                 1.0943
 Frc consts  --      6.5859                 6.5881                 6.6344
 IR Inten    --      5.9276                 1.7270                24.9013

                     64                     65                     66
                      A                      A                      A
 Frequencies --   3212.7997              3220.7506              3222.3916
 Red. masses --      1.0975                 1.0946                 1.0954
 Frc consts  --      6.6748                 6.6899                 6.7016
 IR Inten    --     14.0888                 7.8252                 1.4203

 - Thermochemistry -
 -------------------
 Temperature   298.150 Kelvin.  Pressure   1.00000 Atm.
 Atom     1 has atomic number  6 and mass  12.00000

 Molecular mass:   212.03928 amu.
 Principal axes and moments of inertia in atomic units:
                           1         2         3
     Eigenvalues --   638.22917********************
           X            1.00000   0.00000   0.00000
           Y            0.00000   1.00000   0.00000
           Z            0.00000   0.00000   1.00000
 This molecule is an asymmetric top.
 Rotational symmetry number  1.
 Warning -- assumption of classical behavior for rotation
           may cause significant error
 Rotational temperatures (Kelvin)      0.13571     0.00739     0.00701
 Rotational constants (GHZ):           2.82773     0.15391     0.14596
 Zero-point vibrational energy     477723.3 (Joules/Mol)
                                  114.17861 (Kcal/Mol)
 Warning -- explicit consideration of  18 degrees of freedom as
           vibrations may cause significant error
 Vibrational temperatures:     35.18    53.36    54.51   151.44   191.24
          (Kelvin)            299.22   319.61   424.41   489.10   592.16
                              598.78   626.43   627.41   692.81   764.02
                              786.68   822.11   877.27   913.13   934.51
                             1005.59  1026.58  1068.37  1107.06  1198.23
                             1207.13  1225.46  1235.66  1336.75  1387.47
                             1399.12  1408.14  1441.64  1456.94  1482.58
                             1513.96  1589.37  1596.16  1645.73  1675.26
                             1726.99  1750.97  1754.86  1894.39  1908.37
                             1919.56  1940.05  1962.76  2070.45  2132.11
                             2194.30  2219.62  2298.26  2326.21  2357.62
                             2377.00  3319.65  4576.85  4588.90  4605.31
                             4609.97  4610.77  4615.40  4622.50  4633.94
                             4636.30

 Zero-point correction=                           0.181955 (Hartree/Particle)
 Thermal correction to Energy=                    0.194249
 Thermal correction to Enthalpy=                  0.195193
 Thermal correction to Gibbs Free Energy=         0.140589
 Sum of electronic and zero-point Energies=           -998.912910
 Sum of electronic and thermal Energies=              -998.900616
 Sum of electronic and thermal Enthalpies=            -998.899672
 Sum of electronic and thermal Free Energies=         -998.954276

                     E (Thermal)             CV                S
                      KCal/Mol        Cal/Mol-Kelvin    Cal/Mol-Kelvin
 Total                  121.893             47.233            114.924
 Electronic               0.000              0.000              0.000
 Translational            0.889              2.981             41.958
 Rotational               0.889              2.981             32.892
 Vibrational            120.116             41.271             40.073
 Vibration     1          0.593              1.985              6.235
 Vibration     2          0.594              1.982              5.409
 Vibration     3          0.594              1.982              5.367
 Vibration     4          0.605              1.945              3.355
 Vibration     5          0.613              1.920              2.903
 Vibration     6          0.641              1.828              2.061
 Vibration     7          0.648              1.807              1.942
 Vibration     8          0.689              1.683              1.445
 Vibration     9          0.720              1.596              1.212
 Vibration    10          0.776              1.445              0.921
 Vibration    11          0.779              1.435              0.905
 Vibration    12          0.796              1.393              0.841
 Vibration    13          0.797              1.392              0.839
 Vibration    14          0.838              1.291              0.706
 Vibration    15          0.886              1.181              0.585
 Vibration    16          0.902              1.147              0.551
 Vibration    17          0.928              1.093              0.502
 Vibration    18          0.969              1.011              0.433

 Optimization completed.
    -- Stationary point found.
 Normal termination of Gaussian 09 at Thu Aug 24 22:17:13 2023.
