 Gaussian 09, Revision D.01,
 Gaussian 09:  EM64W-G09RevD.01 13-Apr-2013

 --------------------------------------------------------------------
 # opt freq b3lyp/6-31+g(d) geom=connectivity empiricaldispersion=gd3
 --------------------------------------------------------------------

 -------------------
 Title Card Required
 -------------------
 Symbolic Z-matrix:
 Charge =  0 Multiplicity = 1

 SCF Done:  E(RB3LYP) =  -631.651657952     A.U. after   15 cycles
 SCF Done:  E(RB3LYP) =  -631.686083915     A.U. after   15 cycles
 SCF Done:  E(RB3LYP) =  -631.688292880     A.U. after   16 cycles
 SCF Done:  E(RB3LYP) =  -631.686392154     A.U. after   16 cycles
 SCF Done:  E(RB3LYP) =  -631.691777434     A.U. after   14 cycles
 SCF Done:  E(RB3LYP) =  -631.691592021     A.U. after   16 cycles
 SCF Done:  E(RB3LYP) =  -631.692346740     A.U. after   14 cycles
 SCF Done:  E(RB3LYP) =  -631.692729344     A.U. after   14 cycles
 SCF Done:  E(RB3LYP) =  -631.692909611     A.U. after   14 cycles
 SCF Done:  E(RB3LYP) =  -631.692914520     A.U. after   14 cycles
 SCF Done:  E(RB3LYP) =  -631.693120589     A.U. after   13 cycles
 SCF Done:  E(RB3LYP) =  -631.693205879     A.U. after   12 cycles
 SCF Done:  E(RB3LYP) =  -631.692944995     A.U. after   14 cycles
 SCF Done:  E(RB3LYP) =  -631.693211217     A.U. after   14 cycles
 SCF Done:  E(RB3LYP) =  -631.693213362     A.U. after   11 cycles
 SCF Done:  E(RB3LYP) =  -631.693214644     A.U. after   12 cycles
 SCF Done:  E(RB3LYP) =  -631.693215345     A.U. after   13 cycles
 SCF Done:  E(RB3LYP) =  -631.693215440     A.U. after   10 cycles
 Optimization completed.
    -- Stationary point found.
 Normal termination of Gaussian 09 at Sat Aug 26 00:14:51 2023.

 ---------------------------------------------------------------------
 #N Geom=AllCheck Guess=TCheck SCRF=Check GenChk RB3LYP/6-31+G(d) Freq
 ---------------------------------------------------------------------

 Structure from the checkpoint file:  "D:\machine learning\molecule_48.chk"
 -------------------
 Title Card Required
 -------------------
 Charge =  0 Multiplicity = 1

                         Standard orientation:
 ---------------------------------------------------------------------
 Center     Atomic      Atomic             Coordinates (Angstroms)
 Number     Number       Type             X           Y           Z
 ---------------------------------------------------------------------
      1          6           0        5.417386   -1.208773   -0.000328
      2          6           0        3.308048    0.001525   -0.000025
      3          6           0        4.023145    1.218338    0.000374
      4          6           0        5.416754    1.213145    0.000411
      5          6           0        6.118213    0.002381    0.000054
      6          1           0        5.958619   -2.151284   -0.000597
      7          1           0        3.474840    2.155794    0.000658
      8          1           0        5.957520    2.155947    0.000722
      9          6           0        1.886067   -0.000406   -0.000080
     10          6           0        0.664015   -0.008400   -0.000029
     11          6           0       -0.696018   -0.019051   -0.000086
     12          6           0       -1.917017   -0.033995   -0.000087
     13          6           0       -3.344181   -0.020688   -0.000071
     14          6           0       -4.036157    1.207628   -0.000399
     15          6           0       -5.428450    1.192156   -0.000339
     16          1           0       -3.480165    2.139950   -0.000671
     17          6           0       -5.313358   -1.204561    0.000448
     18          6           0       -6.087785   -0.038567    0.000082
     19          1           0       -5.987761    2.124053   -0.000612
     20          1           0       -5.791796   -2.182452    0.000831
     21          6           0        4.023812   -1.215017   -0.000369
     22          1           0        3.475755   -2.152556   -0.000661
     23          1           0       -7.172163   -0.100226    0.000126
     24          7           0       -3.978102   -1.215172    0.000398
     25          1           0        7.205015    0.002679    0.000082
 ---------------------------------------------------------------------

 SCF Done:  E(RB3LYP) =  -631.693215440     A.U. after    2 cycles

 The electronic state is 1-A.
 Alpha  occ. eigenvalues --  -14.34862 -10.26183 -10.23854 -10.23255 -10.22563
 Alpha  occ. eigenvalues --  -10.21909 -10.21900 -10.21687 -10.21626 -10.21443
 Alpha  occ. eigenvalues --  -10.21262 -10.21226 -10.21170 -10.21077 -10.20950
 Alpha  occ. eigenvalues --  -10.20927  -0.95954  -0.87668  -0.81989  -0.81615
 Alpha  occ. eigenvalues --   -0.79929  -0.77271  -0.76376  -0.73226  -0.66948
 Alpha  occ. eigenvalues --   -0.64619  -0.63987  -0.62254  -0.59862  -0.55500
 Alpha  occ. eigenvalues --   -0.54386  -0.50396  -0.49745  -0.49464  -0.47028
 Alpha  occ. eigenvalues --   -0.45299  -0.44955  -0.43858  -0.42254  -0.42046
 Alpha  occ. eigenvalues --   -0.39503  -0.38971  -0.37429  -0.36677  -0.35645
 Alpha  occ. eigenvalues --   -0.34712  -0.31560  -0.30010  -0.27535  -0.27306
 Alpha  occ. eigenvalues --   -0.27005  -0.25470  -0.22439
 Alpha virt. eigenvalues --   -0.07960  -0.04037  -0.02963  -0.02593  -0.02472
 Alpha virt. eigenvalues --   -0.00119   0.00254   0.01877   0.02272   0.02472
 Alpha virt. eigenvalues --    0.03446   0.03613   0.04640   0.04661   0.05258

 Mulliken charges:
               1
     1  C    0.083356
     2  C    0.519342
     3  C   -0.561140
     4  C    0.082601
     5  C   -0.197265
     6  H    0.185602
     7  H    0.197366
     8  H    0.184891
     9  C   -1.494253
    10  C    1.352155
    11  C    0.799082
    12  C   -1.038373
    13  C    0.138351
    14  C   -0.277685
    15  C   -0.204263
    16  H    0.204262
    17  C   -0.140921
    18  C   -0.032768
    19  H    0.192554
    20  H    0.181886
    21  C   -0.600955
    22  H    0.201064
    23  H    0.190678
    24  N   -0.149332
    25  H    0.183766
 Sum of Mulliken charges =   0.00000

 Dipole moment (field-independent basis, Debye):
    X=             -0.2137    Y=              1.9827    Z=             -0.0004  Tot=              1.9941
 Quadrupole moment (field-independent basis, Debye-Ang):
   XX=            -53.5643   YY=            -85.7073   ZZ=            -98.3855
   XY=             -6.5331   XZ=              0.0017   YZ=              0.0015

  Exact polarizability: 471.373  -0.241 158.657   0.001   0.000  88.484
 Approx polarizability: 686.783   1.404 265.154  -0.006   0.000 128.174

                      1                      2                      3
                      A                      A                      A
 Frequencies --     16.0539                30.4921                34.6614
 Red. masses --      3.9861                 5.5921                 6.3757
 Frc consts  --      0.0006                 0.0031                 0.0045
 IR Inten    --      1.0542                 1.6244                 1.8695

                      4                      5                      6
                      A                      A                      A
 Frequencies --     84.2964                95.2344               190.1217
 Red. masses --      5.6500                 5.6490                 5.6812
 Frc consts  --      0.0237                 0.0302                 0.1210
 IR Inten    --      0.4563                 0.1907                 0.4725

                      7                      8                      9
                      A                      A                      A
 Frequencies --    225.6650               232.3551               306.4116
 Red. masses --      7.5952                 7.2037                 5.5844
 Frc consts  --      0.2279                 0.2291                 0.3089
 IR Inten    --      0.4392                 0.0496                 0.0103

                     10                     11                     12
                      A                      A                      A
 Frequencies --    410.5128               411.6432               433.6093
 Red. masses --      3.0063                 3.3706                 4.4290
 Frc consts  --      0.2985                 0.3365                 0.4906
 IR Inten    --      1.0087                 4.0576                 2.3938

                     13                     14                     15
                      A                      A                      A
 Frequencies --    468.5779               486.8026               529.8546
 Red. masses --      7.6751                 8.6469                 8.5633
 Frc consts  --      0.9929                 1.2073                 1.4165
 IR Inten    --      1.1117                17.3517                 1.4711

                     16                     17                     18
                      A                      A                      A
 Frequencies --    532.4355               613.1112               630.9247
 Red. masses --      3.3292                 4.3491                 6.7490
 Frc consts  --      0.5561                 0.9632                 1.5829
 IR Inten    --      0.0023                14.0359                 0.5276

                     19                     20                     21
                      A                      A                      A
 Frequencies --    637.4979               692.0127               700.1641
 Red. masses --      7.2392                 6.8807                 1.8805
 Frc consts  --      1.7334                 1.9414                 0.5432
 IR Inten    --      2.0521                 0.2096                40.7385

                     22                     23                     24
                      A                      A                      A
 Frequencies --    722.4818               749.1184               769.5056
 Red. masses --     11.4805                 1.8447                 1.8145
 Frc consts  --      3.5307                 0.6099                 0.6330
 IR Inten    --      0.5750                20.6781                23.6539

                     25                     26                     27
                      A                      A                      A
 Frequencies --    792.1298               797.0418               852.6803
 Red. masses --      6.2100                 2.2375                 1.2479
 Frc consts  --      2.2958                 0.8375                 0.5346
 IR Inten    --     11.0918                54.2485                 0.0003

                     28                     29                     30
                      A                      A                      A
 Frequencies --    905.0189               931.6250               979.6474
 Red. masses --      1.3306                 1.4032                 1.4115
 Frc consts  --      0.6421                 0.7175                 0.7981
 IR Inten    --      0.8838                 2.3990                 0.4313

                     31                     32                     33
                      A                      A                      A
 Frequencies --    980.7531               998.6462              1003.9582
 Red. masses --      1.3665                 7.0342                 1.2884
 Frc consts  --      0.7744                 4.1332                 0.7651
 IR Inten    --      0.0008                 3.9944                 0.0244

                     34                     35                     36
                      A                      A                      A
 Frequencies --   1008.7020              1010.4667              1021.7412
 Red. masses --      1.3154                 6.4933                 7.8812
 Frc consts  --      0.7886                 3.9063                 4.8476
 IR Inten    --      0.0376                 1.4072                 0.9460

                     37                     38                     39
                      A                      A                      A
 Frequencies --   1055.5577              1073.0164              1107.4401
 Red. masses --      2.1373                 2.1828                11.5120
 Frc consts  --      1.4031                 1.4807                 8.3184
 IR Inten    --      9.1510                 3.7267                 0.3079

                     40                     41                     42
                      A                      A                      A
 Frequencies --   1110.0487              1122.6700              1190.2270
 Red. masses --      1.6278                 1.6054                 1.1341
 Frc consts  --      1.1818                 1.1922                 0.9465
 IR Inten    --      4.7774                 3.8562                 9.6706

                     43                     44                     45
                      A                      A                      A
 Frequencies --   1201.0342              1216.7736              1242.3900
 Red. masses --      1.1089                 1.1501                 3.9623
 Frc consts  --      0.9425                 1.0032                 3.6034
 IR Inten    --      0.0301                 0.2727                38.0093

                     46                     47                     48
                      A                      A                      A
 Frequencies --   1295.2025              1323.8121              1325.9277
 Red. masses --      4.8063                 1.7168                 3.3343
 Frc consts  --      4.7505                 1.7726                 3.4538
 IR Inten    --     10.7118                 0.5919                 0.2074

                     49                     50                     51
                      A                      A                      A
 Frequencies --   1364.7663              1388.1452              1464.1406
 Red. masses --      1.6870                 3.7760                 2.0331
 Frc consts  --      1.8513                 4.2870                 2.5679
 IR Inten    --      0.6213                 4.8217                36.4989

                     52                     53                     54
                      A                      A                      A
 Frequencies --   1481.1741              1503.2824              1536.6298
 Red. masses --      2.1873                 2.3555                 2.3737
 Frc consts  --      2.8272                 3.1363                 3.3023
 IR Inten    --      4.7430               123.8238                 1.3651

                     55                     56                     57
                      A                      A                      A
 Frequencies --   1607.3919              1615.5090              1628.7385
 Red. masses --      4.9703                 4.8909                 5.1770
 Frc consts  --      7.5662                 7.5208                 8.0915
 IR Inten    --     22.7469                 1.0535               118.0032

                     58                     59                     60
                      A                      A                      A
 Frequencies --   1647.1666              2240.8603              2317.6563
 Red. masses --      5.2766                11.9974                11.9973
 Frc consts  --      8.4348                35.4950                37.9692
 IR Inten    --      2.5583                 9.0425                84.4108

                     61                     62                     63
                      A                      A                      A
 Frequencies --   3172.8562              3182.4764              3191.3738
 Red. masses --      1.0892                 1.0858                 1.0888
 Frc consts  --      6.4606                 6.4791                 6.5336
 IR Inten    --     29.3256                 2.0027                 6.3813

                     64                     65                     66
                      A                      A                      A
 Frequencies --   3192.0599              3202.6361              3210.4817
 Red. masses --      1.0887                 1.0923                 1.0943
 Frc consts  --      6.5358                 6.6007                 6.6453
 IR Inten    --      8.0225                20.8090                20.6830

                     67                     68                     69
                      A                      A                      A
 Frequencies --   3210.5568              3214.6886              3218.2020
 Red. masses --      1.0935                 1.0973                 1.0972
 Frc consts  --      6.6407                 6.6813                 6.6950
 IR Inten    --     23.2787                15.3804                10.4698

 - Thermochemistry -
 -------------------
 Temperature   298.150 Kelvin.  Pressure   1.00000 Atm.
 Atom     1 has atomic number  6 and mass  12.00000

 Molecular mass:   203.07350 amu.
 Principal axes and moments of inertia in atomic units:
                           1         2         3
     Eigenvalues --   628.69036********************
           X            1.00000  -0.00187   0.00000
           Y            0.00187   1.00000   0.00001
           Z            0.00000  -0.00001   1.00000
 This molecule is an asymmetric top.
 Rotational symmetry number  1.
 Warning -- assumption of classical behavior for rotation
           may cause significant error
 Rotational temperatures (Kelvin)      0.13777     0.00648     0.00619
 Rotational constants (GHZ):           2.87064     0.13506     0.12899
 Zero-point vibrational energy     503274.0 (Joules/Mol)
                                  120.28538 (Kcal/Mol)
 Warning -- explicit consideration of  17 degrees of freedom as
           vibrations may cause significant error
 Vibrational temperatures:     23.10    43.87    49.87   121.28   137.02
          (Kelvin)            273.54   324.68   334.31   440.86   590.64
                              592.26   623.87   674.18   700.40   762.34
                              766.05   882.13   907.76   917.22   995.65
                             1007.38  1039.49  1077.81  1107.15  1139.70
                             1146.76  1226.82  1302.12  1340.40  1409.49
                             1411.08  1436.83  1444.47  1451.30  1453.83
                             1470.06  1518.71  1543.83  1593.36  1597.11
                             1615.27  1712.47  1728.02  1750.66  1787.52
                             1863.51  1904.67  1907.71  1963.59  1997.23
                             2106.57  2131.08  2162.89  2210.86  2312.68
                             2324.35  2343.39  2369.90  3224.09  3334.59
                             4565.03  4578.87  4591.67  4592.66  4607.87
                             4619.16  4619.27  4625.21  4630.27

 Zero-point correction=                           0.191687 (Hartree/Particle)
 Thermal correction to Energy=                    0.204272
 Thermal correction to Enthalpy=                  0.205216
 Thermal correction to Gibbs Free Energy=         0.149069
 Sum of electronic and zero-point Energies=           -631.501528
 Sum of electronic and thermal Energies=              -631.488944
 Sum of electronic and thermal Enthalpies=            -631.488000
 Sum of electronic and thermal Free Energies=         -631.544146

                     E (Thermal)             CV                S
                      KCal/Mol        Cal/Mol-Kelvin    Cal/Mol-Kelvin
 Total                  128.182             47.866            118.170
 Electronic               0.000              0.000              0.000
 Translational            0.889              2.981             41.830
 Rotational               0.889              2.981             33.130
 Vibrational            126.405             41.904             43.210
 Vibration     1          0.593              1.986              7.071
 Vibration     2          0.594              1.984              5.797
 Vibration     3          0.594              1.983              5.543
 Vibration     4          0.601              1.960              3.788
 Vibration     5          0.603              1.953              3.550
 Vibration     6          0.633              1.853              2.227
 Vibration     7          0.650              1.802              1.913
 Vibration     8          0.653              1.791              1.861
 Vibration     9          0.697              1.662              1.382
 Vibration    10          0.775              1.447              0.925
 Vibration    11          0.776              1.445              0.921
 Vibration    12          0.794              1.397              0.847
 Vibration    13          0.826              1.320              0.742
 Vibration    14          0.843              1.279              0.692
 Vibration    15          0.885              1.184              0.588
 Vibration    16          0.887              1.178              0.582
 Vibration    17          0.972              1.004              0.428

 Optimization completed.
    -- Stationary point found.
 Normal termination of Gaussian 09 at Sat Aug 26 00:36:06 2023.
