 Gaussian 09, Revision D.01,
 Gaussian 09:  EM64W-G09RevD.01 13-Apr-2013

 --------------------------------------------------------------------
 # opt freq b3lyp/6-31+g(d) geom=connectivity empiricaldispersion=gd3
 --------------------------------------------------------------------

 -------------------
 Title Card Required
 -------------------
 Symbolic Z-matrix:
 Charge =  0 Multiplicity = 1

 SCF Done:  E(RB3LYP) =  -730.143725363     A.U. after   15 cycles
 SCF Done:  E(RB3LYP) =  -730.177442808     A.U. after   14 cycles
 SCF Done:  E(RB3LYP) =  -730.177086083     A.U. after   16 cycles
 SCF Done:  E(RB3LYP) =  -730.181958598     A.U. after   14 cycles
 SCF Done:  E(RB3LYP) =  -730.185364866     A.U. after   16 cycles
 SCF Done:  E(RB3LYP) =  -730.184472903     A.U. after   16 cycles
 SCF Done:  E(RB3LYP) =  -730.185633558     A.U. after   13 cycles
 SCF Done:  E(RB3LYP) =  -730.185672763     A.U. after   14 cycles
 SCF Done:  E(RB3LYP) =  -730.185974598     A.U. after   13 cycles
 SCF Done:  E(RB3LYP) =  -730.185868630     A.U. after   14 cycles
 SCF Done:  E(RB3LYP) =  -730.191546251     A.U. after   16 cycles
 SCF Done:  E(RB3LYP) =  -730.191381098     A.U. after   16 cycles
 SCF Done:  E(RB3LYP) =  -730.191578643     A.U. after   16 cycles
 SCF Done:  E(RB3LYP) =  -730.191579880     A.U. after   16 cycles
 SCF Done:  E(RB3LYP) =  -730.191603202     A.U. after   15 cycles
 SCF Done:  E(RB3LYP) =  -730.191602271     A.U. after   15 cycles
 SCF Done:  E(RB3LYP) =  -730.191606858     A.U. after   15 cycles
 SCF Done:  E(RB3LYP) =  -730.191607132     A.U. after   11 cycles
 SCF Done:  E(RB3LYP) =  -730.191607151     A.U. after   10 cycles
 Optimization completed on the basis of negligible forces.
    -- Stationary point found.
 Normal termination of Gaussian 09 at Fri Aug 25 20:26:05 2023.

 ---------------------------------------------------------------------
 #N Geom=AllCheck Guess=TCheck SCRF=Check GenChk RB3LYP/6-31+G(d) Freq
 ---------------------------------------------------------------------

 Structure from the checkpoint file:  "D:\machine learning\molecule_46.chk"
 -------------------
 Title Card Required
 -------------------
 Charge =  0 Multiplicity = 1

                         Standard orientation:
 ---------------------------------------------------------------------
 Center     Atomic      Atomic             Coordinates (Angstroms)
 Number     Number       Type             X           Y           Z
 ---------------------------------------------------------------------
      1          6           0        0.372283   -0.063431    0.000204
      2          6           0       -0.850285   -0.092483    0.000177
      3          6           0        1.732231   -0.030659    0.000199
      4          6           0       -2.269794   -0.131647    0.000132
      5          6           0        2.954435   -0.000188    0.000137
      6          6           0       -3.026576    1.055209   -0.000310
      7          6           0       -2.961338   -1.366232    0.000534
      8          6           0        4.376098    0.032577    0.000020
      9          6           0       -4.421269    1.023832   -0.000361
     10          1           0       -2.512616    2.011951   -0.000615
     11          6           0       -4.346826   -1.403867    0.000488
     12          1           0       -2.393891   -2.292117    0.000883
     13          6           0        5.120667   -1.166794   -0.000560
     14          6           0        5.065288    1.264573    0.000509
     15          6           0       -5.088493   -0.209983    0.000037
     16          1           0       -4.970382    1.958464   -0.000703
     17          1           0       -4.883383   -2.347784    0.000792
     18          6           0        6.513872   -1.129562   -0.000664
     19          1           0        4.594504   -2.116882   -0.000920
     20          6           0        6.458781    1.290563    0.000398
     21          1           0        4.496491    2.189783    0.000971
     22          8           0       -6.443548   -0.357596    0.000026
     23          6           0        7.188281    0.096488   -0.000191
     24          1           0        7.075655   -2.060116   -0.001113
     25          1           0        6.977737    2.245676    0.000776
     26          6           0       -7.259479    0.809313   -0.000461
     27          1           0        8.274820    0.121253   -0.000272
     28          1           0       -7.084045    1.417160   -0.898015
     29          1           0       -8.289596    0.449331   -0.000404
     30          1           0       -7.084176    1.417809    0.896681
 ---------------------------------------------------------------------

 SCF Done:  E(RB3LYP) =  -730.191607151     A.U. after    1 cycles

 The electronic state is 1-A.
 Alpha  occ. eigenvalues --  -19.20042 -10.26813 -10.25522 -10.22731 -10.22307
 Alpha  occ. eigenvalues --  -10.21259 -10.21071 -10.21025 -10.20863 -10.20725
 Alpha  occ. eigenvalues --  -10.20699 -10.20695 -10.20641 -10.20589 -10.20551
 Alpha  occ. eigenvalues --  -10.20476 -10.20457 -10.20248  -1.08334  -0.87321
 Alpha  occ. eigenvalues --   -0.87124  -0.80734  -0.79153  -0.76925  -0.76379
 Alpha  occ. eigenvalues --   -0.75865  -0.73275  -0.70823  -0.64622  -0.62895
 Alpha  occ. eigenvalues --   -0.61923  -0.61748  -0.58806  -0.55336  -0.54171
 Alpha  occ. eigenvalues --   -0.52271  -0.49979  -0.48992  -0.48391  -0.46504
 Alpha  occ. eigenvalues --   -0.46226  -0.44481  -0.44039  -0.43360  -0.43263
 Alpha  occ. eigenvalues --   -0.40475  -0.39935  -0.38946  -0.37945  -0.36947
 Alpha  occ. eigenvalues --   -0.36152  -0.36135  -0.34536  -0.33780  -0.33561
 Alpha  occ. eigenvalues --   -0.29473  -0.26996  -0.26516  -0.25272  -0.24712
 Alpha  occ. eigenvalues --   -0.20724
 Alpha virt. eigenvalues --   -0.06541  -0.02370  -0.02005  -0.01928  -0.01668
 Alpha virt. eigenvalues --   -0.00177   0.00439   0.01543   0.01993   0.02499
 Alpha virt. eigenvalues --    0.02940   0.03373   0.03739   0.04299   0.04772

 Mulliken charges:
               1
     1  C    1.088135
     2  C   -1.130402
     3  C    1.128950
     4  C   -0.008668
     5  C   -1.273050
     6  C   -0.764441
     7  C   -0.439211
     8  C    0.204961
     9  C    0.703136
    10  H    0.197636
    11  C   -0.058039
    12  H    0.198876
    13  C   -0.403661
    14  C   -0.452224
    15  C   -0.079571
    16  H    0.180530
    17  H    0.195627
    18  C    0.019767
    19  H    0.195577
    20  C    0.030651
    21  H    0.195805
    22  O   -0.373259
    23  C   -0.198760
    24  H    0.183243
    25  H    0.183076
    26  C   -0.330208
    27  H    0.181662
    28  H    0.206049
    29  H    0.211765
    30  H    0.206048
 Sum of Mulliken charges =   0.00000

 Dipole moment (field-independent basis, Debye):
    X=             -1.5079    Y=              1.2832    Z=             -0.0007  Tot=              1.9800
 Quadrupole moment (field-independent basis, Debye-Ang):
   XX=            -66.7231   YY=            -94.3773   ZZ=           -111.8961
   XY=             -9.3078   XZ=              0.0032   YZ=              0.0006

  Exact polarizability: 541.804  -0.196 176.259  -0.001   0.001 103.606
 Approx polarizability: 758.237   7.413 292.093  -0.007   0.006 150.844

                      1                      2                      3
                      A                      A                      A
 Frequencies --     15.6868                25.9232                26.5041
 Red. masses --      3.5262                 5.6215                 6.1468
 Frc consts  --      0.0005                 0.0022                 0.0025
 IR Inten    --      0.3159                 0.8583                 0.9429

                      4                      5                      6
                      A                      A                      A
 Frequencies --     67.6997                74.4708               105.0863
 Red. masses --      4.5164                 5.5321                 4.2416
 Frc consts  --      0.0122                 0.0181                 0.0276
 IR Inten    --      0.0638                 0.0778                 3.4087

                      7                      8                      9
                      A                      A                      A
 Frequencies --    165.6941               198.1948               212.6641
 Red. masses --      5.2470                 5.5632                 7.5099
 Frc consts  --      0.0849                 0.1288                 0.2001
 IR Inten    --      1.3779                 0.0560                 0.3774

                     10                     11                     12
                      A                      A                      A
 Frequencies --    243.8391               274.0044               287.8906
 Red. masses --      2.0165                 3.9063                 1.7676
 Frc consts  --      0.0706                 0.1728                 0.0863
 IR Inten    --      0.2521                 2.9511                 1.0145

                     13                     14                     15
                      A                      A                      A
 Frequencies --    374.2788               410.6673               418.7520
 Red. masses --      5.5244                 2.9155                 6.9402
 Frc consts  --      0.4560                 0.2897                 0.7170
 IR Inten    --      1.2979                 0.0001                 9.4290

                     16                     17                     18
                      A                      A                      A
 Frequencies --    421.6216               461.7174               474.1675
 Red. masses --      3.0433                 7.2957                 4.4940
 Frc consts  --      0.3187                 0.9164                 0.5953
 IR Inten    --      0.0113                11.5044                 8.3518

                     19                     20                     21
                      A                      A                      A
 Frequencies --    502.5292               530.9964               535.2909
 Red. masses --      6.0912                 5.5533                 2.6445
 Frc consts  --      0.9063                 0.9225                 0.4465
 IR Inten    --     16.0399                 7.4434                 3.9371

                     22                     23                     24
                      A                      A                      A
 Frequencies --    603.7950               627.7177               629.2916
 Red. masses --      4.3299                 6.5596                 6.7481
 Frc consts  --      0.9301                 1.5228                 1.5745
 IR Inten    --     14.9374                 3.5427                 2.0857

                     25                     26                     27
                      A                      A                      A
 Frequencies --    647.1214               668.5346               699.6640
 Red. masses --      7.8283                 9.1541                 1.9262
 Frc consts  --      1.9315                 2.4105                 0.5556
 IR Inten    --      0.9563                 0.5677                37.9279

                     28                     29                     30
                      A                      A                      A
 Frequencies --    724.0708               746.9535               764.8573
 Red. masses --      3.9542                 5.9022                 1.8653
 Frc consts  --      1.2214                 1.9402                 0.6429
 IR Inten    --      0.7228                19.3939                38.3101

                     31                     32                     33
                      A                      A                      A
 Frequencies --    819.1981               825.0505               845.6469
 Red. masses --      1.2795                 6.0202                 1.7613
 Frc consts  --      0.5059                 2.4145                 0.7421
 IR Inten    --      7.6519                 1.7681                62.5693

                     34                     35                     36
                      A                      A                      A
 Frequencies --    851.4992               861.8467               931.8028
 Red. masses --      1.2483                 5.8688                 1.4766
 Frc consts  --      0.5333                 2.5684                 0.7554
 IR Inten    --      0.0020                 0.7908                 3.1471

                     37                     38                     39
                      A                      A                      A
 Frequencies --    952.4645               971.2233               978.8096
 Red. masses --      1.3347                 1.3253                 1.3645
 Frc consts  --      0.7134                 0.7365                 0.7702
 IR Inten    --      0.1036                 0.0419                 0.0000

                     40                     41                     42
                      A                      A                      A
 Frequencies --    998.4563              1001.4958              1013.9232
 Red. masses --      7.7213                 1.2834                 6.5037
 Frc consts  --      4.5352                 0.7584                 3.9393
 IR Inten    --      1.7487                 0.0334                 0.3016

                     43                     44                     45
                      A                      A                      A
 Frequencies --   1030.0255              1054.6159              1065.9743
 Red. masses --      2.7888                 2.1782                 5.1407
 Frc consts  --      1.7433                 1.4273                 3.4416
 IR Inten    --      0.8334                12.6548                78.5063

                     46                     47                     48
                      A                      A                      A
 Frequencies --   1109.3317              1148.3702              1181.1972
 Red. masses --      1.6284                 1.3591                 1.2691
 Frc consts  --      1.1807                 1.0560                 1.0433
 IR Inten    --      4.8802                10.3197                 1.0155

                     49                     50                     51
                      A                      A                      A
 Frequencies --   1200.2309              1211.7086              1215.2431
 Red. masses --      1.1080                 1.2401                 1.3196
 Frc consts  --      0.9404                 1.0728                 1.1482
 IR Inten    --      0.0046                51.4241                19.7480

                     52                     53                     54
                      A                      A                      A
 Frequencies --   1217.4256              1237.1538              1293.7788
 Red. masses --      1.2278                 3.1715                 4.3681
 Frc consts  --      1.0722                 2.8600                 4.3079
 IR Inten    --     39.0517                24.4993               410.4696

                     55                     56                     57
                      A                      A                      A
 Frequencies --   1324.5027              1332.8444              1345.5652
 Red. masses --      3.3605                 2.4845                 1.9542
 Frc consts  --      3.4735                 2.6004                 2.0846
 IR Inten    --      0.0538                69.6879                54.1210

                     58                     59                     60
                      A                      A                      A
 Frequencies --   1364.3124              1390.4885              1459.0141
 Red. masses --      1.6788                 4.4227                 3.0048
 Frc consts  --      1.8411                 5.0382                 3.7686
 IR Inten    --      0.3496                26.8314                 5.2368

                     61                     62                     63
                      A                      A                      A
 Frequencies --   1480.7962              1493.9917              1519.5201
 Red. masses --      2.1925                 1.1846                 1.0458
 Frc consts  --      2.8326                 1.5578                 1.4227
 IR Inten    --      4.0252                26.4690                 8.4900

                     64                     65                     66
                      A                      A                      A
 Frequencies --   1526.5670              1533.8286              1555.4639
 Red. masses --      1.0726                 2.1849                 2.5956
 Frc consts  --      1.4727                 3.0286                 3.7000
 IR Inten    --     78.3697                55.4300               122.5680

                     67                     68                     69
                      A                      A                      A
 Frequencies --   1602.1913              1614.7157              1646.9030
 Red. masses --      6.2963                 4.8973                 5.2843
 Frc consts  --      9.5228                 7.5232                 8.4446
 IR Inten    --     19.8971                 1.2125                29.8412

                     70                     71                     72
                      A                      A                      A
 Frequencies --   1655.7920              2234.7468              2310.0031
 Red. masses --      5.4766                11.9984                11.9952
 Frc consts  --      8.8466                35.3046                37.7123
 IR Inten    --    191.5507                 7.2013                55.7681

                     73                     74                     75
                      A                      A                      A
 Frequencies --   3024.7816              3087.1130              3159.7234
 Red. masses --      1.0342                 1.1070                 1.1001
 Frc consts  --      5.5748                 6.2160                 6.4712
 IR Inten    --     85.3440                37.7498                26.7912

                     76                     77                     78
                      A                      A                      A
 Frequencies --   3180.7154              3189.3513              3200.9039
 Red. masses --      1.0856                 1.0887                 1.0883
 Frc consts  --      6.4710                 6.5248                 6.5694
 IR Inten    --      3.1696                 6.6877                 8.8537

                     79                     80                     81
                      A                      A                      A
 Frequencies --   3201.3218              3202.3246              3208.9341
 Red. masses --      1.0921                 1.0893                 1.0941
 Frc consts  --      6.5946                 6.5816                 6.6380
 IR Inten    --     22.0641                 3.9353                22.5601

                     82                     83                     84
                      A                      A                      A
 Frequencies --   3213.1856              3217.2918              3226.3329
 Red. masses --      1.0973                 1.0951                 1.0927
 Frc consts  --      6.6750                 6.6787                 6.7014
 IR Inten    --     17.0553                 8.5487                15.0312

 - Thermochemistry -
 -------------------
 Temperature   298.150 Kelvin.  Pressure   1.00000 Atm.
 Atom     1 has atomic number  6 and mass  12.00000

 Molecular mass:   232.08882 amu.
 Principal axes and moments of inertia in atomic units:
                           1         2         3
     Eigenvalues --   703.60190********************
           X            0.99999  -0.00370   0.00000
           Y            0.00370   0.99999   0.00000
           Z            0.00000   0.00000   1.00000
 This molecule is an asymmetric top.
 Rotational symmetry number  1.
 Warning -- assumption of classical behavior for rotation
           may cause significant error
 Rotational temperatures (Kelvin)      0.12310     0.00447     0.00432
 Rotational constants (GHZ):           2.56500     0.09321     0.08999
 Zero-point vibrational energy     618824.5 (Joules/Mol)
                                  147.90261 (Kcal/Mol)
 Warning -- explicit consideration of  22 degrees of freedom as
           vibrations may cause significant error
 Vibrational temperatures:     22.57    37.30    38.13    97.40   107.15
          (Kelvin)            151.20   238.40   285.16   305.98   350.83
                              394.23   414.21   538.50   590.86   602.49
                              606.62   664.31   682.22   723.03   763.98
                              770.16   868.73   903.14   905.41   931.06
                              961.87  1006.66  1041.78  1074.70  1100.46
                             1178.64  1187.06  1216.70  1225.12  1240.00
                             1340.65  1370.38  1397.37  1408.29  1436.55
                             1440.93  1458.81  1481.98  1517.36  1533.70
                             1596.08  1652.25  1699.48  1726.86  1743.38
                             1748.46  1751.60  1779.99  1861.46  1905.66
                             1917.66  1935.97  1962.94  2000.60  2099.19
                             2130.53  2149.52  2186.25  2196.39  2206.83
                             2237.96  2305.19  2323.21  2369.52  2382.31
                             3215.30  3323.58  4351.98  4441.66  4546.13
                             4576.33  4588.76  4605.38  4605.98  4607.43
                             4616.93  4623.05  4628.96  4641.97

 Zero-point correction=                           0.235698 (Hartree/Particle)
 Thermal correction to Energy=                    0.251025
 Thermal correction to Enthalpy=                  0.251969
 Thermal correction to Gibbs Free Energy=         0.189657
 Sum of electronic and zero-point Energies=           -729.955909
 Sum of electronic and thermal Energies=              -729.940582
 Sum of electronic and thermal Enthalpies=            -729.939638
 Sum of electronic and thermal Free Energies=         -730.001951

                     E (Thermal)             CV                S
                      KCal/Mol        Cal/Mol-Kelvin    Cal/Mol-Kelvin
 Total                  157.520             58.375            131.148
 Electronic               0.000              0.000              0.000
 Translational            0.889              2.981             42.228
 Rotational               0.889              2.981             33.968
 Vibrational            155.743             52.414             54.952
 Vibration     1          0.593              1.986              7.117
 Vibration     2          0.593              1.985              6.119
 Vibration     3          0.593              1.984              6.075
 Vibration     4          0.598              1.970              4.219
 Vibration     5          0.599              1.966              4.032
 Vibration     6          0.605              1.945              3.358
 Vibration     7          0.624              1.885              2.484
 Vibration     8          0.637              1.842              2.150
 Vibration     9          0.644              1.822              2.021
 Vibration    10          0.659              1.773              1.775
 Vibration    11          0.676              1.721              1.571
 Vibration    12          0.685              1.696              1.486
 Vibration    13          0.745              1.525              1.062
 Vibration    14          0.775              1.447              0.924
 Vibration    15          0.782              1.429              0.896
 Vibration    16          0.784              1.423              0.886
 Vibration    17          0.819              1.335              0.761
 Vibration    18          0.831              1.307              0.726
 Vibration    19          0.858              1.244              0.652
 Vibration    20          0.886              1.181              0.585
 Vibration    21          0.890              1.172              0.576
 Vibration    22          0.962              1.024              0.443

 Optimization completed on the basis of negligible forces.
    -- Stationary point found.
 Normal termination of Gaussian 09 at Fri Aug 25 20:58:15 2023.
