 Gaussian 16, Revision B.01,
 Gaussian 16:  EM64L-G16RevB.01 20-Dec-2017

 ---------------------------------------------------------
 # opt freq b3lyp/6-31+g(d) empiricaldispersion=gd3 volume
 ---------------------------------------------------------

 -------------------
 Title Card Required
 -------------------
 Symbolic Z-matrix:
 Charge =  0 Multiplicity = 1

 SCF Done:  E(RB3LYP) =  -345.384063483     A.U. after   14 cycles
 SCF Done:  E(RB3LYP) =  -345.384063983     A.U. after    9 cycles
 SCF Done:  E(RB3LYP) =  -345.384064054     A.U. after    9 cycles
 Optimization completed.
    -- Stationary point found.
 Normal termination of Gaussian 16 at Mon Sep 18 05:50:29 2023.

 ---------------------------------------------------------------------
 #N Geom=AllCheck Guess=TCheck SCRF=Check GenChk RB3LYP/6-31+G(d) Freq
 ---------------------------------------------------------------------

 Structure from the checkpoint file:  "molecule_9-volume.chk"
 -------------------
 Title Card Required
 -------------------
 Charge =  0 Multiplicity = 1

                         Standard orientation:
 ---------------------------------------------------------------------
 Center     Atomic      Atomic             Coordinates (Angstroms)
 Number     Number       Type             X           Y           Z
 ---------------------------------------------------------------------
      1          6           0        0.613392    0.700141    0.027089
      2          6           0       -0.680738    1.478467    0.080550
      3          6           0       -1.887668    0.637235   -0.355666
      4          6           0       -1.863230   -0.729077    0.338547
      5          6           0       -0.597104   -1.509069   -0.049609
      6          6           0        0.646547   -0.648296   -0.042819
      7          1           0       -2.818301    1.173372   -0.130102
      8          1           0       -0.830083    1.857138    1.103469
      9          1           0       -0.594307    2.370299   -0.559172
     10          1           0       -1.873326   -0.575237    1.427411
     11          1           0       -2.760103   -1.310586    0.088980
     12          1           0       -0.456705   -2.356120    0.640172
     13          1           0       -0.731855   -1.961659   -1.048513
     14          1           0       -1.856844    0.490708   -1.444981
     15          7           0        1.782300    1.466325    0.153861
     16          1           0        2.612620    0.930283   -0.088226
     17          1           0        1.753077    2.356496   -0.333601
     18          7           0        1.937167   -1.294272   -0.106765
     19          1           0        2.205867   -1.687210    0.796360
     20          1           0        1.926500   -2.068256   -0.770022
 ---------------------------------------------------------------------

 SCF Done:  E(RB3LYP) =  -345.384064054     A.U. after    1 cycles

 The electronic state is 1-A.
 Alpha  occ. eigenvalues --  -14.32738 -14.32529 -10.20890 -10.19061 -10.18815
 Alpha  occ. eigenvalues --  -10.18391 -10.18359 -10.18244  -0.91270  -0.87126
 Alpha  occ. eigenvalues --   -0.81175  -0.73178  -0.70669  -0.62489  -0.59130
 Alpha  occ. eigenvalues --   -0.51595  -0.49860  -0.48793  -0.47755  -0.45895
 Alpha  occ. eigenvalues --   -0.42599  -0.41435  -0.39384  -0.38498  -0.37819
 Alpha  occ. eigenvalues --   -0.33365  -0.33014  -0.32097  -0.30228  -0.25152
 Alpha  occ. eigenvalues --   -0.18864
 Alpha virt. eigenvalues --   -0.00093   0.01123   0.01621   0.03240   0.03659
 Alpha virt. eigenvalues --    0.03984   0.04748   0.06279   0.07742   0.08436
 Alpha virt. eigenvalues --    0.08769   0.09373   0.10640   0.10736   0.11075

 Mulliken charges:
               1
     1  C    0.792849
     2  C   -0.431654
     3  C   -0.437769
     4  C   -0.437471
     5  C   -0.720814
     6  C   -0.107062
     7  H    0.192345
     8  H    0.221389
     9  H    0.185614
    10  H    0.203519
    11  H    0.191099
    12  H    0.196698
    13  H    0.197975
    14  H    0.204541
    15  N   -0.846729
    16  H    0.411739
    17  H    0.359179
    18  N   -0.941755
    19  H    0.394501
    20  H    0.371806
 Sum of Mulliken charges =   0.00000

 Dipole moment (field-independent basis, Debye):
    X=             -0.5794    Y=             -0.4998    Z=             -0.5993  Tot=              0.9719
 Quadrupole moment (field-independent basis, Debye-Ang):
   XX=            -51.5712   YY=            -45.9601   ZZ=            -51.7764
   XY=             -1.7329   XZ=             -0.9981   YZ=             -2.4328

  Exact polarizability:  91.089   1.933 103.378   0.186   1.332  67.326
 Approx polarizability: 112.557   3.515 150.567   0.900   3.835 101.457

                      1                      2                      3
                      A                      A                      A
 Frequencies --     93.9769               131.5692               184.7610
 Red. masses --      1.1704                 2.2097                 2.3003
 Frc consts  --      0.0061                 0.0225                 0.0463
 IR Inten    --     20.1187                 0.4105                10.5101

                      4                      5                      6
                      A                      A                      A
 Frequencies --    310.0036               317.4343               325.7033
 Red. masses --      1.9308                 2.2521                 2.8745
 Frc consts  --      0.1093                 0.1337                 0.1797
 IR Inten    --      1.1153                 7.0148                 5.5663

                      7                      8                      9
                      A                      A                      A
 Frequencies --    384.7944               419.2964               468.0744
 Red. masses --      2.8696                 1.1453                 3.6335
 Frc consts  --      0.2503                 0.1186                 0.4690
 IR Inten    --      7.7208                60.1849                 0.4314

                     10                     11                     12
                      A                      A                      A
 Frequencies --    481.9115               570.4553               623.9286
 Red. masses --      2.6154                 3.0694                 2.1968
 Frc consts  --      0.3579                 0.5885                 0.5039
 IR Inten    --      9.0090                30.9008                 5.8346

                     13                     14                     15
                      A                      A                      A
 Frequencies --    702.4321               782.3549               847.7431
 Red. masses --      4.0428                 1.3401                 1.3999
 Frc consts  --      1.1753                 0.4833                 0.5928
 IR Inten    --      1.0839               229.8196                43.4732

                     16                     17                     18
                      A                      A                      A
 Frequencies --    857.5282               880.0547               915.4426
 Red. masses --      1.4681                 2.5399                 1.8597
 Frc consts  --      0.6361                 1.1590                 0.9183
 IR Inten    --    102.4330                 1.4982                31.6601

                     19                     20                     21
                      A                      A                      A
 Frequencies --    936.0545               971.5055              1065.2605
 Red. masses --      1.5553                 2.2600                 1.8142
 Frc consts  --      0.8029                 1.2568                 1.2129
 IR Inten    --      0.7810                 3.9226                 0.2623

                     22                     23                     24
                      A                      A                      A
 Frequencies --   1090.9653              1104.5302              1148.2702
 Red. masses --      1.8930                 1.6587                 1.2327
 Frc consts  --      1.3275                 1.1923                 0.9576
 IR Inten    --      1.4130                 1.3918                 6.0407

                     25                     26                     27
                      A                      A                      A
 Frequencies --   1183.2045              1205.2862              1216.8225
 Red. masses --      1.9320                 1.3005                 2.1205
 Frc consts  --      1.5936                 1.1131                 1.8499
 IR Inten    --     16.6653                 4.6420                20.6158

                     28                     29                     30
                      A                      A                      A
 Frequencies --   1248.2819              1280.9124              1307.7845
 Red. masses --      1.9222                 1.3007                 1.2651
 Frc consts  --      1.7648                 1.2574                 1.2748
 IR Inten    --     30.3721                 6.4256                 1.1410

                     31                     32                     33
                      A                      A                      A
 Frequencies --   1322.5262              1382.3575              1384.9456
 Red. masses --      1.5633                 1.4825                 1.4618
 Frc consts  --      1.6110                 1.6691                 1.6520
 IR Inten    --      3.6562                 2.1695                 4.0139

                     34                     35                     36
                      A                      A                      A
 Frequencies --   1396.4614              1414.6475              1498.1002
 Red. masses --      1.5904                 2.1827                 1.0946
 Frc consts  --      1.8273                 2.5736                 1.4474
 IR Inten    --      5.6590                15.9521                 2.3363

                     37                     38                     39
                      A                      A                      A
 Frequencies --   1509.1087              1513.6625              1525.7821
 Red. masses --      1.0817                 1.0890                 1.1001
 Frc consts  --      1.4514                 1.4700                 1.5089
 IR Inten    --      1.5840                 5.5142                 0.9662

                     40                     41                     42
                      A                      A                      A
 Frequencies --   1657.4224              1674.1749              1763.5456
 Red. masses --      1.2042                 1.1678                 3.7840
 Frc consts  --      1.9490                 1.9284                 6.9339
 IR Inten    --     47.1457                26.0217                56.5238

                     43                     44                     45
                      A                      A                      A
 Frequencies --   2960.7556              3003.5790              3005.0911
 Red. masses --      1.0724                 1.0827                 1.0601
 Frc consts  --      5.5388                 5.7550                 5.6407
 IR Inten    --     73.4523                54.2308                43.1040

                     46                     47                     48
                      A                      A                      A
 Frequencies --   3019.9814              3027.1721              3035.2341
 Red. masses --      1.0816                 1.0684                 1.0822
 Frc consts  --      5.8117                 5.7683                 5.8740
 IR Inten    --      9.1262                44.8518                64.3770

                     49                     50                     51
                      A                      A                      A
 Frequencies --   3067.1175              3072.5866              3447.2753
 Red. masses --      1.0967                 1.1041                 1.0497
 Frc consts  --      6.0783                 6.1414                 7.3499
 IR Inten    --     75.0507                68.7754                 3.2702

                     52                     53                     54
                      A                      A                      A
 Frequencies --   3495.4152              3522.1525              3599.1889
 Red. masses --      1.0478                 1.0914                 1.0970
 Frc consts  --      7.5425                 7.9774                 8.3727
 IR Inten    --      9.3619                 1.4319                11.9378

 - Thermochemistry -
 -------------------
 Temperature   298.150 Kelvin.  Pressure   1.00000 Atm.
 Atom     1 has atomic number  6 and mass  12.00000

 Molecular mass:   112.10005 amu.
 Principal axes and moments of inertia in atomic units:
                           1         2         3
     Eigenvalues --   633.35980 914.059381460.89100
           X            0.99990  -0.01371  -0.00196
           Y            0.01370   0.99988  -0.00745
           Z            0.00206   0.00742   0.99997
 This molecule is an asymmetric top.
 Rotational symmetry number  1.
 Warning -- assumption of classical behavior for rotation
           may cause significant error
 Rotational temperatures (Kelvin)      0.13675     0.09476     0.05929
 Rotational constants (GHZ):           2.84947     1.97442     1.23537
 Zero-point vibrational energy     474646.1 (Joules/Mol)
                                  113.44313 (Kcal/Mol)
 Warning -- explicit consideration of  11 degrees of freedom as
           vibrations may cause significant error
 Vibrational temperatures:    135.21   189.30   265.83   446.03   456.72
          (Kelvin)            468.61   553.63   603.27   673.45   693.36
                              820.76   897.69  1010.64  1125.63  1219.71
                             1233.79  1266.20  1317.12  1346.77  1397.78
                             1532.67  1569.66  1589.17  1652.10  1702.37
                             1734.14  1750.74  1796.00  1842.95  1881.61
                             1902.82  1988.90  1992.63  2009.20  2035.36
                             2155.43  2171.27  2177.82  2195.26  2384.66
                             2408.76  2537.35  4259.87  4321.48  4323.66
                             4345.08  4355.43  4367.02  4412.90  4420.77
                             4959.86  5029.12  5067.59  5178.43

 Zero-point correction=                           0.180783 (Hartree/Particle)
 Thermal correction to Energy=                    0.189019
 Thermal correction to Enthalpy=                  0.189963
 Thermal correction to Gibbs Free Energy=         0.148485
 Sum of electronic and zero-point Energies=           -345.203281
 Sum of electronic and thermal Energies=              -345.195045
 Sum of electronic and thermal Enthalpies=            -345.194101
 Sum of electronic and thermal Free Energies=         -345.235579

                     E (Thermal)             CV                S
                      KCal/Mol        Cal/Mol-Kelvin    Cal/Mol-Kelvin
 Total                  118.611             31.921             87.299
 Electronic               0.000              0.000              0.000
 Translational            0.889              2.981             40.058
 Rotational               0.889              2.981             28.227
 Vibrational            116.834             25.959             19.013
 Vibration     1          0.603              1.953              3.576
 Vibration     2          0.612              1.922              2.923
 Vibration     3          0.631              1.861              2.280
 Vibration     4          0.699              1.655              1.362
 Vibration     5          0.704              1.640              1.323
 Vibration     6          0.710              1.624              1.281
 Vibration     7          0.754              1.503              1.020
 Vibration     8          0.782              1.428              0.894
 Vibration     9          0.825              1.321              0.743
 Vibration    10          0.838              1.290              0.705
 Vibration    11          0.927              1.095              0.503

                           ! Non-Optimized Parameters !
 Normal termination of Gaussian 16 at Mon Sep 18 05:51:41 2023.
