 Gaussian 16, Revision B.01,
 Gaussian 16:  EM64L-G16RevB.01 20-Dec-2017

 ---------------------------------------------------------
 # opt freq b3lyp/6-31+g(d) empiricaldispersion=gd3 volume
 ---------------------------------------------------------

 -------------------
 Title Card Required
 -------------------
 Symbolic Z-matrix:
 Charge =  0 Multiplicity = 1

 SCF Done:  E(RB3LYP) =  -495.408369487     A.U. after   13 cycles
 SCF Done:  E(RB3LYP) =  -495.408369521     A.U. after    9 cycles
 Optimization completed.
    -- Stationary point found.
 Normal termination of Gaussian 16 at Mon Sep 18 05:24:20 2023.

 ---------------------------------------------------------------------
 #N Geom=AllCheck Guess=TCheck SCRF=Check GenChk RB3LYP/6-31+G(d) Freq
 ---------------------------------------------------------------------

 Structure from the checkpoint file:  "molecule_2-volume.chk"
 -------------------
 Title Card Required
 -------------------
 Charge =  0 Multiplicity = 1

                         Standard orientation:
 ---------------------------------------------------------------------
 Center     Atomic      Atomic             Coordinates (Angstroms)
 Number     Number       Type             X           Y           Z
 ---------------------------------------------------------------------
      1          6           0       -0.746776   -0.003247   -0.000357
      2          6           0        0.746776   -0.003248    0.000358
      3          7           0        1.359770   -1.124964   -0.415177
      4          6           0        2.695835   -1.142059   -0.424228
      5          6           0        3.492939   -0.064200   -0.024552
      6          6           0        2.854509    1.097421    0.410208
      7          6           0        1.460470    1.130858    0.422500
      8          6           0       -1.460470    1.130858   -0.422499
      9          6           0       -2.854509    1.097421   -0.410209
     10          6           0       -3.492939   -0.064199    0.024550
     11          6           0       -2.695834   -1.142058    0.424230
     12          7           0       -1.359771   -1.124963    0.415178
     13          1           0        3.154501   -2.066541   -0.771675
     14          1           0        4.576252   -0.140332   -0.052128
     15          1           0        3.428940    1.958554    0.742171
     16          1           0        0.931384    2.010426    0.777497
     17          1           0       -0.931384    2.010426   -0.777496
     18          1           0       -3.428939    1.958554   -0.742175
     19          1           0       -4.576253   -0.140334    0.052123
     20          1           0       -3.154503   -2.066541    0.771674
 ---------------------------------------------------------------------

 SCF Done:  E(RB3LYP) =  -495.408369521     A.U. after    1 cycles

 The electronic state is 1-A.
 Alpha  occ. eigenvalues --  -14.33819 -14.33819 -10.23956 -10.23928 -10.23062
 Alpha  occ. eigenvalues --  -10.23062 -10.21925 -10.21924 -10.21052 -10.21052
 Alpha  occ. eigenvalues --  -10.20904 -10.20904  -0.96028  -0.93954  -0.81492
 Alpha  occ. eigenvalues --   -0.80975  -0.79860  -0.74917  -0.66112  -0.64946
 Alpha  occ. eigenvalues --   -0.62693  -0.60776  -0.54436  -0.51260  -0.50141
 Alpha  occ. eigenvalues --   -0.48732  -0.47798  -0.45530  -0.43713  -0.42156
 Alpha  occ. eigenvalues --   -0.41413  -0.40661  -0.39304  -0.38632  -0.36744
 Alpha  occ. eigenvalues --   -0.30083  -0.29391  -0.28536  -0.26268  -0.25825
 Alpha  occ. eigenvalues --   -0.25133
 Alpha virt. eigenvalues --   -0.05500  -0.03334  -0.03332  -0.00367   0.00189
 Alpha virt. eigenvalues --    0.00610   0.02045   0.02976   0.03419   0.04326
 Alpha virt. eigenvalues --    0.05060   0.05273   0.05514   0.06514   0.06788

 Mulliken charges:
               1
     1  C   -0.148456
     2  C   -0.148454
     3  N   -0.108266
     4  C   -0.153342
     5  C    0.017146
     6  C   -0.494800
     7  C    0.141125
     8  C    0.141125
     9  C   -0.494801
    10  C    0.017146
    11  C   -0.153342
    12  N   -0.108266
    13  H    0.180716
    14  H    0.187346
    15  H    0.189532
    16  H    0.188998
    17  H    0.188998
    18  H    0.189532
    19  H    0.187346
    20  H    0.180716
 Sum of Mulliken charges =   0.00000

 Dipole moment (field-independent basis, Debye):
    X=              0.0000    Y=              3.2207    Z=              0.0000  Tot=              3.2207
 Quadrupole moment (field-independent basis, Debye-Ang):
   XX=            -51.3608   YY=            -68.2774   ZZ=            -73.3822
   XY=              0.0000   XZ=              0.8942   YZ=              0.0000

  Exact polarizability: 191.681   0.000 123.262  -0.621   0.000  75.756
 Approx polarizability: 273.148   0.000 217.118  -0.769   0.000 117.512

                      1                      2                      3
                      A                      A                      A
 Frequencies --     57.5418                90.8138               125.0857
 Red. masses --      4.3788                 4.6569                 4.5841
 Frc consts  --      0.0085                 0.0226                 0.0423
 IR Inten    --      0.0764                 3.7810                 2.4804

                      4                      5                      6
                      A                      A                      A
 Frequencies --    257.4434               321.5625               366.0142
 Red. masses --      4.5794                 7.2891                 4.0288
 Frc consts  --      0.1788                 0.4441                 0.3180
 IR Inten    --      0.2571                 0.0168                 1.3920

                      7                      8                      9
                      A                      A                      A
 Frequencies --    414.2215               417.8255               508.0251
 Red. masses --      3.6443                 3.6197                 3.7116
 Frc consts  --      0.3684                 0.3723                 0.5644
 IR Inten    --      5.1607                 0.5208                 2.7083

                     10                     11                     12
                      A                      A                      A
 Frequencies --    565.9373               622.9018               638.2638
 Red. masses --      2.7475                 7.4234                 7.1301
 Frc consts  --      0.5185                 1.6970                 1.7114
 IR Inten    --      1.3220                 5.0442                 4.6483

                     13                     14                     15
                      A                      A                      A
 Frequencies --    668.2787               757.1854               758.4518
 Red. masses --      7.0504                 1.5648                 2.0187
 Frc consts  --      1.8552                 0.5286                 0.6842
 IR Inten    --     10.3117                 8.0742                24.7283

                     16                     17                     18
                      A                      A                      A
 Frequencies --    771.8864               783.0136               828.2944
 Red. masses --      1.8867                 5.9425                 2.7987
 Frc consts  --      0.6623                 2.1466                 1.1313
 IR Inten    --     77.9306                 0.0645                 5.7606

                     19                     20                     21
                      A                      A                      A
 Frequencies --    905.2955               911.4256               978.4710
 Red. masses --      1.2996                 1.3681                 1.4041
 Frc consts  --      0.6275                 0.6696                 0.7921
 IR Inten    --      0.2543                 0.3682                 0.2738

                     22                     23                     24
                      A                      A                      A
 Frequencies --    981.8665              1006.3169              1007.0598
 Red. masses --      1.4345                 3.3724                 7.1640
 Frc consts  --      0.8148                 2.0122                 4.2807
 IR Inten    --      0.2389                 3.0664                 2.2195

                     25                     26                     27
                      A                      A                      A
 Frequencies --   1009.3382              1010.1969              1055.4132
 Red. masses --      1.3093                 1.6497                 4.5566
 Frc consts  --      0.7859                 0.9919                 2.9904
 IR Inten    --      0.0441                 1.3014                 7.8689

                     28                     29                     30
                      A                      A                      A
 Frequencies --   1075.5448              1105.9778              1121.5983
 Red. masses --      2.3754                 1.9689                 1.6650
 Frc consts  --      1.6190                 1.4189                 1.2341
 IR Inten    --      5.5784                 1.8044                 2.6764

                     31                     32                     33
                      A                      A                      A
 Frequencies --   1134.1588              1189.8143              1195.6396
 Red. masses --      1.6449                 1.1523                 1.1532
 Frc consts  --      1.2466                 0.9611                 0.9713
 IR Inten    --      7.8068                 5.2959                 2.5180

                     34                     35                     36
                      A                      A                      A
 Frequencies --   1295.4540              1306.2227              1310.3596
 Red. masses --      2.6442                 6.4084                 2.6753
 Frc consts  --      2.6145                 6.4422                 2.7065
 IR Inten    --      0.0878                 2.4102                 0.0157

                     37                     38                     39
                      A                      A                      A
 Frequencies --   1339.3180              1343.4858              1461.0041
 Red. masses --      1.4598                 2.5642                 1.8835
 Frc consts  --      1.5428                 2.7269                 2.3687
 IR Inten    --      3.7421                 0.0179                 4.7885

                     40                     41                     42
                      A                      A                      A
 Frequencies --   1469.6666              1508.3882              1521.6731
 Red. masses --      2.1310                 2.0992                 2.6862
 Frc consts  --      2.7119                 2.8140                 3.6646
 IR Inten    --     49.9507                26.8711                 5.9395

                     43                     44                     45
                      A                      A                      A
 Frequencies --   1613.9898              1624.2324              1635.8183
 Red. masses --      4.9505                 5.7505                 5.5161
 Frc consts  --      7.5980                 8.9382                 8.6966
 IR Inten    --     31.8531                 5.2414                84.0261

                     46                     47                     48
                      A                      A                      A
 Frequencies --   1636.7827              3167.9671              3168.3014
 Red. masses --      5.2851                 1.0890                 1.0891
 Frc consts  --      8.3423                 6.4391                 6.4410
 IR Inten    --      2.9478                25.7682                22.4127

                     49                     50                     51
                      A                      A                      A
 Frequencies --   3185.4640              3186.8932              3201.1837
 Red. masses --      1.0879                 1.0882                 1.0926
 Frc consts  --      6.5042                 6.5117                 6.5967
 IR Inten    --      3.9178                12.4854                25.5270

                     52                     53                     54
                      A                      A                      A
 Frequencies --   3204.5459              3210.8192              3212.1894
 Red. masses --      1.0921                 1.0980                 1.0976
 Frc consts  --      6.6077                 6.6696                 6.6725
 IR Inten    --     11.6311                32.2723                 6.3175

 - Thermochemistry -
 -------------------
 Temperature   298.150 Kelvin.  Pressure   1.00000 Atm.
 Atom     1 has atomic number  6 and mass  12.00000

 Molecular mass:   156.06875 amu.
 Principal axes and moments of inertia in atomic units:
                           1         2         3
     Eigenvalues --   613.887263170.700573634.48395
           X            1.00000   0.00000   0.00141
           Y            0.00000   1.00000   0.00000
           Z           -0.00141   0.00000   1.00000
 This molecule is an asymmetric top.
 Rotational symmetry number  1.
 Warning -- assumption of classical behavior for rotation
           may cause significant error
 Rotational temperatures (Kelvin)      0.14109     0.02732     0.02383
 Rotational constants (GHZ):           2.93986     0.56919     0.49656
 Zero-point vibrational energy     414174.8 (Joules/Mol)
                                   98.99016 (Kcal/Mol)
 Warning -- explicit consideration of  10 degrees of freedom as
           vibrations may cause significant error
 Vibrational temperatures:     82.79   130.66   179.97   370.40   462.66
          (Kelvin)            526.61   595.97   601.16   730.93   814.26
                              896.22   918.32   961.50  1089.42  1091.24
                             1110.57  1126.58  1191.73  1302.52  1311.34
                             1407.80  1412.69  1447.87  1448.93  1452.21
                             1453.45  1518.50  1547.47  1591.26  1613.73
                             1631.80  1711.88  1720.26  1863.87  1879.36
                             1885.32  1926.98  1932.98  2102.06  2114.52
                             2170.23  2189.35  2322.17  2336.91  2353.58
                             2354.97  4558.00  4558.48  4583.17  4585.23
                             4605.79  4610.63  4619.65  4621.62

 Zero-point correction=                           0.157751 (Hartree/Particle)
 Thermal correction to Energy=                    0.166452
 Thermal correction to Enthalpy=                  0.167396
 Thermal correction to Gibbs Free Energy=         0.123049
 Sum of electronic and zero-point Energies=           -495.250619
 Sum of electronic and thermal Energies=              -495.241917
 Sum of electronic and thermal Enthalpies=            -495.240973
 Sum of electronic and thermal Free Energies=         -495.285320

                     E (Thermal)             CV                S
                      KCal/Mol        Cal/Mol-Kelvin    Cal/Mol-Kelvin
 Total                  104.450             34.486             93.337
 Electronic               0.000              0.000              0.000
 Translational            0.889              2.981             41.045
 Rotational               0.889              2.981             30.338
 Vibrational            102.673             28.524             21.955
 Vibration     1          0.596              1.974              4.540
 Vibration     2          0.602              1.956              3.642
 Vibration     3          0.610              1.928              3.020
 Vibration     4          0.667              1.750              1.679
 Vibration     5          0.707              1.632              1.302
 Vibration     6          0.739              1.542              1.096
 Vibration     7          0.778              1.439              0.912
 Vibration     8          0.781              1.432              0.899
 Vibration     9          0.863              1.232              0.638
 Vibration    10          0.922              1.105              0.512

 Optimization completed.
    -- Stationary point found.
 Normal termination of Gaussian 16 at Mon Sep 18 05:26:26 2023.
