 Gaussian 16, Revision B.01,
 Gaussian 16:  EM64L-G16RevB.01 20-Dec-2017

 ---------------------------------------------------------
 # opt freq b3lyp/6-31+g(d) empiricaldispersion=gd3 volume
 ---------------------------------------------------------

 -------------------
 Title Card Required
 -------------------
 Symbolic Z-matrix:
 Charge =  0 Multiplicity = 1

 SCF Done:  E(RB3LYP) =  -477.174642154     A.U. after   15 cycles
 SCF Done:  E(RB3LYP) =  -477.174643313     A.U. after   10 cycles
 Optimization completed.
    -- Stationary point found.
 Normal termination of Gaussian 16 at Mon Sep 18 06:17:28 2023.

 ---------------------------------------------------------------------
 #N Geom=AllCheck Guess=TCheck SCRF=Check GenChk RB3LYP/6-31+G(d) Freq
 ---------------------------------------------------------------------

 Structure from the checkpoint file:  "molecule_18-volume.chk"
 -------------------
 Title Card Required
 -------------------
 Charge =  0 Multiplicity = 1

                         Standard orientation:
 ---------------------------------------------------------------------
 Center     Atomic      Atomic             Coordinates (Angstroms)
 Number     Number       Type             X           Y           Z
 ---------------------------------------------------------------------
      1          6           0        2.249563   -1.108797    0.000002
      2          6           0        0.052868   -0.439961   -0.000002
      3          6           0        0.412245    0.947543   -0.000012
      4          6           0        1.799263    1.251718   -0.000006
      5          6           0        2.720464    0.229838   -0.000002
      6          1           0        2.962449   -1.932675    0.000013
      7          6           0       -1.339332   -0.780984   -0.000010
      8          6           0       -0.595134    1.949368   -0.000013
      9          1           0        2.114148    2.293073   -0.000023
     10          1           0        3.788466    0.429176   -0.000005
     11          6           0       -1.922632    1.582214    0.000004
     12          6           0       -2.297255    0.217494   -0.000006
     13          1           0       -0.304191    2.996844   -0.000024
     14          1           0       -2.700715    2.340920    0.000010
     15          1           0       -3.352605   -0.049871   -0.000017
     16          8           0       -1.649088   -2.107247   -0.000013
     17          1           0       -2.613318   -2.213354    0.000289
     18          7           0        0.974025   -1.442390    0.000020
 ---------------------------------------------------------------------

 SCF Done:  E(RB3LYP) =  -477.174643313     A.U. after    1 cycles

 The electronic state is 1-A.
 Alpha  occ. eigenvalues --  -19.19450 -14.33757 -10.26552 -10.23409 -10.23065
 Alpha  occ. eigenvalues --  -10.21688 -10.21555 -10.20849 -10.20801 -10.20437
 Alpha  occ. eigenvalues --  -10.19987  -1.07451  -0.94881  -0.85591  -0.81229
 Alpha  occ. eigenvalues --   -0.76228  -0.74421  -0.65701  -0.64416  -0.61726
 Alpha  occ. eigenvalues --   -0.56108  -0.53710  -0.51785  -0.49404  -0.46672
 Alpha  occ. eigenvalues --   -0.44887  -0.43359  -0.42578  -0.41153  -0.39968
 Alpha  occ. eigenvalues --   -0.38662  -0.37902  -0.35574  -0.34132  -0.29834
 Alpha  occ. eigenvalues --   -0.26093  -0.25997  -0.22249
 Alpha virt. eigenvalues --   -0.05928  -0.02930  -0.00655   0.00579   0.01087
 Alpha virt. eigenvalues --    0.01375   0.02766   0.03789   0.04834   0.05010
 Alpha virt. eigenvalues --    0.05705   0.06809   0.06870   0.07832   0.08858

 Mulliken charges:
               1
     1  C    0.070632
     2  C   -1.969216
     3  C    1.590784
     4  C   -0.303580
     5  C   -0.165091
     6  H    0.179608
     7  C    0.361391
     8  C   -0.140828
     9  H    0.191133
    10  H    0.187916
    11  C   -0.176876
    12  C   -0.030719
    13  H    0.181591
    14  H    0.182705
    15  H    0.165364
    16  O   -0.646632
    17  H    0.491812
    18  N   -0.169992
 Sum of Mulliken charges =   0.00000

 Dipole moment (field-independent basis, Debye):
    X=             -0.9103    Y=              2.2706    Z=              0.0004  Tot=              2.4463
 Quadrupole moment (field-independent basis, Debye-Ang):
   XX=            -46.6438   YY=            -64.0619   ZZ=            -68.0982
   XY=              3.9037   XZ=             -0.0016   YZ=             -0.0013

  Exact polarizability: 163.644  -7.319 126.811  -0.001  -0.001  59.707
 Approx polarizability: 268.610 -13.885 223.532  -0.001   0.000  89.124

                      1                      2                      3
                      A                      A                      A
 Frequencies --    133.7952               174.0193               261.8908
 Red. masses --      5.1323                 4.1559                 3.7567
 Frc consts  --      0.0541                 0.0742                 0.1518
 IR Inten    --      1.1242                 8.3699                 6.1211

                      4                      5                      6
                      A                      A                      A
 Frequencies --    289.0560               388.6847               434.0174
 Red. masses --      5.9447                 1.1448                 3.7327
 Frc consts  --      0.2926                 0.1019                 0.4143
 IR Inten    --      9.3826                96.0865                 2.3615

                      7                      8                      9
                      A                      A                      A
 Frequencies --    472.6576               473.0604               489.5229
 Red. masses --      4.7615                 3.2416                 7.9401
 Frc consts  --      0.6267                 0.4274                 1.1210
 IR Inten    --      0.4710                 0.0174                 0.3213

                     10                     11                     12
                      A                      A                      A
 Frequencies --    544.2630               583.8242               589.1186
 Red. masses --      5.8190                 6.9240                 3.7651
 Frc consts  --      1.0156                 1.3905                 0.7699
 IR Inten    --      5.6305                 3.0898                 0.6873

                     13                     14                     15
                      A                      A                      A
 Frequencies --    634.5749               715.2800               755.1317
 Red. masses --      3.3932                 6.3927                 1.4964
 Frc consts  --      0.8051                 1.9270                 0.5028
 IR Inten    --      0.2831                 6.0952                34.7947

                     16                     17                     18
                      A                      A                      A
 Frequencies --    782.2354               817.6256               818.5044
 Red. masses --      3.0143                 5.6016                 1.4323
 Frc consts  --      1.0867                 2.2063                 0.5653
 IR Inten    --      2.2140                10.7465                85.0156

                     19                     20                     21
                      A                      A                      A
 Frequencies --    871.8351               895.4195               962.2322
 Red. masses --      1.4666                 5.9035                 1.3823
 Frc consts  --      0.6568                 2.7888                 0.7541
 IR Inten    --      0.2746                 6.0106                 0.0972

                     22                     23                     24
                      A                      A                      A
 Frequencies --    966.5947               997.3150              1054.7297
 Red. masses --      1.2825                 1.3520                 3.0065
 Frc consts  --      0.7060                 0.7923                 1.9706
 IR Inten    --      0.4223                 0.9611                11.2645

                     25                     26                     27
                      A                      A                      A
 Frequencies --   1078.3246              1112.7339              1170.8740
 Red. masses --      2.6244                 2.3172                 1.2842
 Frc consts  --      1.7980                 1.6904                 1.0373
 IR Inten    --     76.5684                33.4824                 1.0251

                     28                     29                     30
                      A                      A                      A
 Frequencies --   1195.5646              1224.9946              1256.0509
 Red. masses --      1.3203                 1.5826                 1.8603
 Frc consts  --      1.1119                 1.3992                 1.7292
 IR Inten    --     27.4535                14.9062                 4.6557

                     31                     32                     33
                      A                      A                      A
 Frequencies --   1290.3911              1309.0647              1379.0924
 Red. masses --      1.6960                 2.5845                 3.5670
 Frc consts  --      1.6639                 2.6094                 3.9970
 IR Inten    --     35.7074                55.0462                71.5905

                     34                     35                     36
                      A                      A                      A
 Frequencies --   1401.7756              1441.0406              1475.1503
 Red. masses --      5.1452                 1.8378                 2.0573
 Frc consts  --      5.9567                 2.2485                 2.6376
 IR Inten    --     50.3917                 1.0077                35.7023

                     37                     38                     39
                      A                      A                      A
 Frequencies --   1515.4342              1556.7500              1613.8455
 Red. masses --      2.7412                 3.6891                 6.8178
 Frc consts  --      3.7091                 5.2676                10.4621
 IR Inten    --     16.7855                54.8279                39.7893

                     40                     41                     42
                      A                      A                      A
 Frequencies --   1647.9490              1667.0550              3160.8546
 Red. masses --      5.2945                 6.2696                 1.0892
 Frc consts  --      8.4716                10.2657                 6.4116
 IR Inten    --     15.1600                11.9412                24.9397

                     43                     44                     45
                      A                      A                      A
 Frequencies --   3165.0021              3179.4332              3182.7575
 Red. masses --      1.0888                 1.0891                 1.0884
 Frc consts  --      6.4262                 6.4866                 6.4958
 IR Inten    --     18.6626                 6.0276                13.3486

                     46                     47                     48
                      A                      A                      A
 Frequencies --   3202.4112              3205.8784              3747.3956
 Red. masses --      1.0962                 1.0963                 1.0662
 Frc consts  --      6.6236                 6.6384                 8.8213
 IR Inten    --     26.3673                22.0714                55.2212

 - Thermochemistry -
 -------------------
 Temperature   298.150 Kelvin.  Pressure   1.00000 Atm.
 Atom     1 has atomic number  6 and mass  12.00000

 Molecular mass:   145.05276 amu.
 Principal axes and moments of inertia in atomic units:
                           1         2         3
     Eigenvalues --   927.166071550.466802477.63287
           X            1.00000  -0.00293   0.00000
           Y            0.00293   1.00000   0.00000
           Z            0.00000   0.00000   1.00000
 This molecule is an asymmetric top.
 Rotational symmetry number  1.
 Warning -- assumption of classical behavior for rotation
           may cause significant error
 Rotational temperatures (Kelvin)      0.09342     0.05586     0.03496
 Rotational constants (GHZ):           1.94651     1.16400     0.72841
 Zero-point vibrational energy     366567.0 (Joules/Mol)
                                   87.61161 (Kcal/Mol)
 Warning -- explicit consideration of  12 degrees of freedom as
           vibrations may cause significant error
 Vibrational temperatures:    192.50   250.37   376.80   415.89   559.23
          (Kelvin)            624.45   680.05   680.63   704.31   783.07
                              839.99   847.61   913.01  1029.13  1086.47
                             1125.46  1176.38  1177.65  1254.38  1288.31
                             1384.44  1390.71  1434.91  1517.52  1551.47
                             1600.98  1684.63  1720.15  1762.49  1807.18
                             1856.58  1883.45  1984.21  2016.84  2073.34
                             2122.41  2180.37  2239.82  2321.96  2371.03
                             2398.52  4547.76  4553.73  4574.50  4579.28
                             4607.56  4612.54  5391.67

 Zero-point correction=                           0.139618 (Hartree/Particle)
 Thermal correction to Energy=                    0.147497
 Thermal correction to Enthalpy=                  0.148441
 Thermal correction to Gibbs Free Energy=         0.107077
 Sum of electronic and zero-point Energies=           -477.035025
 Sum of electronic and thermal Energies=              -477.027146
 Sum of electronic and thermal Enthalpies=            -477.026202
 Sum of electronic and thermal Free Energies=         -477.067567

                     E (Thermal)             CV                S
                      KCal/Mol        Cal/Mol-Kelvin    Cal/Mol-Kelvin
 Total                   92.556             32.562             87.059
 Electronic               0.000              0.000              0.000
 Translational            0.889              2.981             40.827
 Rotational               0.889              2.981             29.656
 Vibrational             90.778             26.600             16.577
 Vibration     1          0.613              1.920              2.891
 Vibration     2          0.627              1.874              2.392
 Vibration     3          0.669              1.743              1.649
 Vibration     4          0.686              1.694              1.479
 Vibration     5          0.757              1.494              1.005
 Vibration     6          0.795              1.396              0.846
 Vibration     7          0.830              1.311              0.730
 Vibration     8          0.830              1.310              0.729
 Vibration     9          0.845              1.273              0.685
 Vibration    10          0.899              1.152              0.556
 Vibration    11          0.941              1.066              0.478
 Vibration    12          0.946              1.055              0.469

 Optimization completed.
    -- Stationary point found.
 Normal termination of Gaussian 16 at Mon Sep 18 06:19:09 2023.
