 Gaussian 16, Revision B.01,
 Gaussian 16:  EM64L-G16RevB.01 20-Dec-2017

 ---------------------------------------------------------
 # opt freq b3lyp/6-31+g(d) empiricaldispersion=gd3 volume
 ---------------------------------------------------------

 -------------------
 Title Card Required
 -------------------
 Symbolic Z-matrix:
 Charge =  0 Multiplicity = 1

 SCF Done:  E(RB3LYP) =  -323.757465826     A.U. after   13 cycles
 SCF Done:  E(RB3LYP) =  -323.757465662     A.U. after    9 cycles
 SCF Done:  E(RB3LYP) =  -323.757465939     A.U. after    9 cycles
 Optimization completed.
    -- Stationary point found.
 Normal termination of Gaussian 16 at Mon Sep 18 05:22:54 2023.

 ---------------------------------------------------------------------
 #N Geom=AllCheck Guess=TCheck SCRF=Check GenChk RB3LYP/6-31+G(d) Freq
 ---------------------------------------------------------------------

 Structure from the checkpoint file:  "molecule_1 -volume.chk"
 -------------------
 Title Card Required
 -------------------
 Charge =  0 Multiplicity = 1

                         Standard orientation:
 ---------------------------------------------------------------------
 Center     Atomic      Atomic             Coordinates (Angstroms)
 Number     Number       Type             X           Y           Z
 ---------------------------------------------------------------------
      1          6           0        1.281282   -1.220481    0.471371
      2          6           0        0.644472   -0.136097   -0.411234
      3          7           0        1.394704    1.101470   -0.297284
      4          6           0       -0.868157   -0.063527   -0.089939
      5          8           0       -1.304052    1.070822    0.508091
      6          8           0       -1.626930   -0.970004   -0.340611
      7          1           0        0.731804   -2.159847    0.371858
      8          1           0        1.260356   -0.922930    1.528205
      9          1           0        2.323082   -1.373634    0.174044
     10          1           0        0.693511   -0.468339   -1.455214
     11          1           0        1.710733    1.385253    0.621410
     12          1           0        1.162454    1.866890   -0.916392
     13          1           0       -0.542593    1.676399    0.596048
 ---------------------------------------------------------------------

 SCF Done:  E(RB3LYP) =  -323.757465939     A.U. after    1 cycles

 The electronic state is 1-A.
 Alpha  occ. eigenvalues --  -19.21113 -19.14763 -14.36006 -10.32542 -10.25682
 Alpha  occ. eigenvalues --  -10.20241  -1.11243  -1.03011  -0.92263  -0.77027
 Alpha  occ. eigenvalues --   -0.66766  -0.61822  -0.55016  -0.54170  -0.48613
 Alpha  occ. eigenvalues --   -0.45926  -0.44704  -0.42265  -0.40149  -0.38528
 Alpha  occ. eigenvalues --   -0.37420  -0.32583  -0.31051  -0.25551
 Alpha virt. eigenvalues --   -0.02123  -0.00854   0.02205   0.02558   0.03493
 Alpha virt. eigenvalues --    0.05986   0.06258   0.07082   0.07813   0.09151
 Alpha virt. eigenvalues --    0.10639   0.11709   0.11942   0.12401   0.14103

 Mulliken charges:
               1
     1  C   -0.660880
     2  C   -0.038929
     3  N   -0.972304
     4  C    0.473127
     5  O   -0.546615
     6  O   -0.443812
     7  H    0.244159
     8  H    0.205979
     9  H    0.224208
    10  H    0.227613
    11  H    0.397081
    12  H    0.404411
    13  H    0.485960
 Sum of Mulliken charges =   0.00000

 Dipole moment (field-independent basis, Debye):
    X=              3.7408    Y=              2.4299    Z=              0.4849  Tot=              4.4871
 Quadrupole moment (field-independent basis, Debye-Ang):
   XX=            -46.4391   YY=            -33.6692   ZZ=            -35.1286
   XY=             -1.5100   XZ=              1.5520   YZ=             -0.5961

  Exact polarizability:  56.045   2.267  55.436  -0.138   2.928  43.108
 Approx polarizability:  71.460   6.520  77.585   0.364   7.750  60.814

 ******    1 imaginary frequencies (negative Signs) ******

                      1                      2                      3
                      A                      A                      A
 Frequencies --   -120.0818                65.0741               242.8080
 Red. masses --      1.8381                 4.1908                 1.3253
 Frc consts  --      0.0156                 0.0105                 0.0460
 IR Inten    --    262.2729                14.1313                 2.4715

                      4                      5                      6
                      A                      A                      A
 Frequencies --    270.5867               349.4472               382.3242
 Red. masses --      2.0629                 1.9713                 1.3712
 Frc consts  --      0.0890                 0.1418                 0.1181
 IR Inten    --      9.5835                26.4033                29.7963

                      7                      8                      9
                      A                      A                      A
 Frequencies --    400.4936               529.0714               610.4788
 Red. masses --      1.8741                 4.0203                 4.1275
 Frc consts  --      0.1771                 0.6630                 0.9063
 IR Inten    --     45.3211                10.3909                10.6471

                     10                     11                     12
                      A                      A                      A
 Frequencies --    675.3537               734.7554               798.3656
 Red. masses --      1.1185                 4.8617                 3.7294
 Frc consts  --      0.3006                 1.5464                 1.4005
 IR Inten    --     37.9866                 5.2875                13.3474

                     13                     14                     15
                      A                      A                      A
 Frequencies --    931.0683               999.7694              1064.0361
 Red. masses --      2.3902                 1.2591                 1.6937
 Frc consts  --      1.2208                 0.7415                 1.1298
 IR Inten    --      4.8168                 1.9237                32.2470

                     16                     17                     18
                      A                      A                      A
 Frequencies --   1152.1035              1190.2695              1250.7456
 Red. masses --      2.7366                 1.8940                 1.8671
 Frc consts  --      2.1402                 1.5809                 1.7209
 IR Inten    --     18.9429                12.3569                17.2769

                     19                     20                     21
                      A                      A                      A
 Frequencies --   1324.9355              1339.7771              1385.5562
 Red. masses --      1.4073                 2.1572                 1.2487
 Frc consts  --      1.4555                 2.2814                 1.4124
 IR Inten    --     49.9217               327.4623                15.3368

                     22                     23                     24
                      A                      A                      A
 Frequencies --   1429.5754              1520.7948              1521.9242
 Red. masses --      1.2222                 1.0454                 1.0481
 Frc consts  --      1.4717                 1.4246                 1.4304
 IR Inten    --     14.0156                 7.2742                 6.7124

                     25                     26                     27
                      A                      A                      A
 Frequencies --   1670.3084              1842.6919              3045.0647
 Red. masses --      1.1122                10.1566                 1.0446
 Frc consts  --      1.8281                20.3191                 5.7070
 IR Inten    --     40.4197               275.7983                17.1671

                     28                     29                     30
                      A                      A                      A
 Frequencies --   3067.3708              3120.3552              3156.2083
 Red. masses --      1.0819                 1.0952                 1.1030
 Frc consts  --      5.9974                 6.2827                 6.4737
 IR Inten    --     14.4943                22.9290                 7.8621

                     31                     32                     33
                      A                      A                      A
 Frequencies --   3563.3417              3633.1485              3678.9279
 Red. masses --      1.0462                 1.0641                 1.1018
 Frc consts  --      7.8264                 8.2757                 8.7859
 IR Inten    --      8.9556                90.9647                16.5025

 - Thermochemistry -
 -------------------
 Temperature   298.150 Kelvin.  Pressure   1.00000 Atm.
 Atom     1 has atomic number  6 and mass  12.00000

 Molecular mass:    89.04768 amu.
 Principal axes and moments of inertia in atomic units:
                           1         2         3
     Eigenvalues --   366.43982 574.64591 811.08029
           X            0.99896  -0.04427   0.01123
           Y            0.04454   0.99870  -0.02463
           Z           -0.01013   0.02510   0.99963
 This molecule is an asymmetric top.
 Rotational symmetry number  1.
 Rotational temperatures (Kelvin)      0.23637     0.15073     0.10679
 Rotational constants (GHZ):           4.92507     3.14061     2.22511
    1 imaginary frequencies ignored.
 Zero-point vibrational energy     280803.8 (Joules/Mol)
                                   67.11372 (Kcal/Mol)
 Warning -- explicit consideration of   8 degrees of freedom as
           vibrations may cause significant error
 Vibrational temperatures:     93.63   349.35   389.31   502.78   550.08
          (Kelvin)            576.22   761.22   878.34   971.68  1057.15
                             1148.67  1339.60  1438.45  1530.91  1657.62
                             1712.53  1799.54  1906.29  1927.64  1993.51
                             2056.84  2188.08  2189.71  2403.20  2651.22
                             4381.17  4413.26  4489.50  4541.08  5126.85
                             5227.29  5293.16

 Zero-point correction=                           0.106953 (Hartree/Particle)
 Thermal correction to Energy=                    0.113412
 Thermal correction to Enthalpy=                  0.114356
 Thermal correction to Gibbs Free Energy=         0.076724
 Sum of electronic and zero-point Energies=           -323.650513
 Sum of electronic and thermal Energies=              -323.644054
 Sum of electronic and thermal Enthalpies=            -323.643110
 Sum of electronic and thermal Free Energies=         -323.680742

                     E (Thermal)             CV                S
                      KCal/Mol        Cal/Mol-Kelvin    Cal/Mol-Kelvin
 Total                   71.167             22.925             79.204
 Electronic               0.000              0.000              0.000
 Translational            0.889              2.981             39.372
 Rotational               0.889              2.981             26.638
 Vibrational             69.390             16.963             13.194
 Vibration     1          0.597              1.971              4.297
 Vibration     2          0.659              1.775              1.782
 Vibration     3          0.674              1.727              1.592
 Vibration     4          0.727              1.576              1.169
 Vibration     5          0.752              1.508              1.030
 Vibration     6          0.766              1.469              0.961
 Vibration     7          0.884              1.186              0.589
 Vibration     8          0.970              1.010              0.432

                           ! Non-Optimized Parameters !
 Normal termination of Gaussian 16 at Mon Sep 18 05:23:48 2023.
