 Gaussian 16, Revision B.01,
 Gaussian 16:  EM64L-G16RevB.01 20-Dec-2017

 ----------------------------------------------------------------------
 # opt freq b3lyp/6-31+g(d) empiricaldispersion=gd3 scf=maxcycle=1000 v
 olume
 ----------------------------------------------------------------------

 -------------------
 Title Card Required
 -------------------
 Symbolic Z-matrix:
 Charge =  0 Multiplicity = 1

 SCF Done:  E(RB3LYP) =  -921.088156439     A.U. after   15 cycles
 SCF Done:  E(RB3LYP) =  -921.088160338     A.U. after   12 cycles
 SCF Done:  E(RB3LYP) =  -921.088161636     A.U. after   12 cycles
 SCF Done:  E(RB3LYP) =  -921.088162168     A.U. after   12 cycles
 SCF Done:  E(RB3LYP) =  -921.088162777     A.U. after   12 cycles
 SCF Done:  E(RB3LYP) =  -921.088162778     A.U. after   11 cycles
 Optimization completed.
    -- Stationary point found.
 Normal termination of Gaussian 16 at Mon Sep 18 06:06:13 2023.

 ---------------------------------------------------------------------
 #N Geom=AllCheck Guess=TCheck SCRF=Check GenChk RB3LYP/6-31+G(d) Freq
 ---------------------------------------------------------------------

 Structure from the checkpoint file:  "MOLECULE_17-volume.chk"
 -------------------
 Title Card Required
 -------------------
 Charge =  0 Multiplicity = 1

                         Standard orientation:
 ---------------------------------------------------------------------
 Center     Atomic      Atomic             Coordinates (Angstroms)
 Number     Number       Type             X           Y           Z
 ---------------------------------------------------------------------
      1          6           0       -1.221871    3.645096   -2.078880
      2          6           0       -0.233147    3.975995   -1.177668
      3          6           0        0.277556    3.011692   -0.266594
      4          6           0       -0.247376    1.676324   -0.285866
      5          6           0       -1.267601    1.368173   -1.230131
      6          6           0       -1.740854    2.326051   -2.101591
      7          1           0        1.697629    4.341870    0.691359
      8          1           0       -1.604500    4.390160   -2.771531
      9          1           0        0.173052    4.985213   -1.150675
     10          6           0        1.296372    3.331174    0.669130
     11          6           0        0.262800    0.697612    0.622046
     12          1           0       -1.670204    0.360250   -1.255663
     13          1           0       -2.520042    2.067807   -2.814498
     14          6           0        1.260223    1.060660    1.511799
     15          6           0        1.779753    2.380165    1.536945
     16          1           0        2.563895    2.632461    2.249171
     17          6           0       -0.262800   -0.697612    0.622046
     18          6           0        0.247376   -1.676324   -0.285866
     19          6           0       -1.260223   -1.060660    1.511799
     20          6           0        1.267601   -1.368173   -1.230131
     21          6           0       -0.277556   -3.011692   -0.266594
     22          6           0       -1.779753   -2.380165    1.536945
     23          6           0        1.740854   -2.326051   -2.101591
     24          1           0        1.670204   -0.360250   -1.255663
     25          6           0        0.233147   -3.975995   -1.177668
     26          6           0       -1.296372   -3.331174    0.669130
     27          1           0       -2.563895   -2.632461    2.249171
     28          6           0        1.221871   -3.645096   -2.078880
     29          1           0        2.520042   -2.067807   -2.814498
     30          1           0       -0.173052   -4.985213   -1.150675
     31          1           0       -1.697629   -4.341870    0.691359
     32          1           0        1.604500   -4.390160   -2.771531
     33          8           0        1.740854    0.098641    2.363932
     34          1           0        2.415310    0.480995    2.945222
     35          8           0       -1.740854   -0.098641    2.363932
     36          1           0       -2.415310   -0.480995    2.945222
 ---------------------------------------------------------------------

 SCF Done:  E(RB3LYP) =  -921.088162778     A.U. after    1 cycles

 The electronic state is 1-A.
 Alpha  occ. eigenvalues --  -19.18965 -19.18965 -10.25662 -10.25662 -10.20311
 Alpha  occ. eigenvalues --  -10.20311 -10.20237 -10.20237 -10.20172 -10.20172
 Alpha  occ. eigenvalues --  -10.19967 -10.19967 -10.19735 -10.19705 -10.19419
 Alpha  occ. eigenvalues --  -10.19419 -10.19241 -10.19241 -10.19118 -10.19118
 Alpha  occ. eigenvalues --  -10.18789 -10.18789  -1.06857  -1.06609  -0.88211
 Alpha  occ. eigenvalues --   -0.87028  -0.82516  -0.81904  -0.79769  -0.76131
 Alpha  occ. eigenvalues --   -0.74048  -0.73972  -0.73221  -0.71266  -0.64027
 Alpha  occ. eigenvalues --   -0.63023  -0.62781  -0.62154  -0.60859  -0.57770
 Alpha  occ. eigenvalues --   -0.55649  -0.55538  -0.52510  -0.50786  -0.50612
 Alpha  occ. eigenvalues --   -0.49687  -0.47428  -0.47279  -0.45092  -0.43883
 Alpha  occ. eigenvalues --   -0.43772  -0.43079  -0.42618  -0.42614  -0.42083
 Alpha  occ. eigenvalues --   -0.40854  -0.40820  -0.40307  -0.39729  -0.37724
 Alpha  occ. eigenvalues --   -0.37111  -0.36930  -0.36337  -0.35109  -0.35093
 Alpha  occ. eigenvalues --   -0.34302  -0.32370  -0.31214  -0.31137  -0.28046
 Alpha  occ. eigenvalues --   -0.27921  -0.23798  -0.23730  -0.20951  -0.20887
 Alpha virt. eigenvalues --   -0.04442  -0.04415  -0.01286  -0.00820  -0.00776
 Alpha virt. eigenvalues --   -0.00221   0.01037   0.01135   0.01753   0.01811
 Alpha virt. eigenvalues --    0.02067   0.02305   0.03467   0.03496   0.04424

 Mulliken charges:
               1
     1  C   -0.468372
     2  C    0.455833
     3  C    0.247082
     4  C   -0.113885
     5  C   -0.682458
     6  C   -0.475987
     7  H    0.185468
     8  H    0.178361
     9  H    0.178637
    10  C    0.052544
    11  C   -0.339639
    12  H    0.202522
    13  H    0.177973
    14  C    1.416611
    15  C   -1.024377
    16  H    0.170373
    17  C   -0.339639
    18  C   -0.113885
    19  C    1.416611
    20  C   -0.682458
    21  C    0.247082
    22  C   -1.024377
    23  C   -0.475987
    24  H    0.202522
    25  C    0.455833
    26  C    0.052544
    27  H    0.170373
    28  C   -0.468372
    29  H    0.177973
    30  H    0.178637
    31  H    0.185468
    32  H    0.178361
    33  O   -0.674269
    34  H    0.513583
    35  O   -0.674269
    36  H    0.513583
 Sum of Mulliken charges =   0.00000

 Dipole moment (field-independent basis, Debye):
    X=              0.0000    Y=              0.0000    Z=              1.4950  Tot=              1.4950
 Quadrupole moment (field-independent basis, Debye-Ang):
   XX=           -117.0877   YY=           -116.6385   ZZ=           -117.8015
   XY=              9.8420   XZ=              0.0000   YZ=              0.0000

  Exact polarizability: 215.781   5.525 292.621   0.000   0.000 238.609
 Approx polarizability: 375.833  16.789 441.951   0.000   0.000 415.133

                      1                      2                      3
                      A                      A                      B
 Frequencies --     12.5721                54.2365                54.2441
 Red. masses --      5.6181                 4.8317                 4.7298
 Frc consts  --      0.0005                 0.0084                 0.0082
 IR Inten    --      0.1271                 1.2784                 1.4802

                      4                      5                      6
                      B                      A                      B
 Frequencies --    107.3276               107.5707               148.4898
 Red. masses --      6.0188                 5.6769                 4.1515
 Frc consts  --      0.0408                 0.0387                 0.0539
 IR Inten    --      0.9325                 0.9478                 0.1295

                      7                      8                      9
                      A                      A                      B
 Frequencies --    150.0793               192.5895               232.9412
 Red. masses --      4.1586                 6.4505                 4.5294
 Frc consts  --      0.0552                 0.1410                 0.1448
 IR Inten    --      0.0133                 2.2496                 9.0515

                     10                     11                     12
                      A                      B                      B
 Frequencies --    236.7015               303.6150               310.1467
 Red. masses --      4.7440                 1.0863                 5.1105
 Frc consts  --      0.1566                 0.0590                 0.2896
 IR Inten    --      4.2719                91.3802                 5.0818

                     13                     14                     15
                      A                      A                      B
 Frequencies --    318.7657               352.4081               359.6298
 Red. masses --      1.1089                 5.0724                 5.3881
 Frc consts  --      0.0664                 0.3712                 0.4106
 IR Inten    --     67.0145                 0.1551                 1.5440

                     16                     17                     18
                      A                      B                      A
 Frequencies --    370.6853               427.4453               429.6781
 Red. masses --      5.2965                 3.4517                 3.6316
 Frc consts  --      0.4288                 0.3716                 0.3950
 IR Inten    --      4.6080                 1.0530                 0.0210

                     19                     20                     21
                      B                      A                      B
 Frequencies --    441.4554               443.6912               494.1662
 Red. masses --      6.9841                 5.9141                 4.1045
 Frc consts  --      0.8019                 0.6860                 0.5905
 IR Inten    --      4.4324                 4.5021                11.5150

                     22                     23                     24
                      A                      B                      A
 Frequencies --    516.5963               532.4180               539.7892
 Red. masses --      3.8168                 5.8676                 3.5462
 Frc consts  --      0.6001                 0.9800                 0.6088
 IR Inten    --     12.2474                 2.2293                 0.3241

                     25                     26                     27
                      B                      A                      B
 Frequencies --    542.2573               543.1989               580.1090
 Red. masses --      3.4321                 6.3252                 3.7981
 Frc consts  --      0.5946                 1.0996                 0.7531
 IR Inten    --      0.6729                 2.1242                 3.6681

                     28                     29                     30
                      A                      B                      A
 Frequencies --    592.3037               640.5604               680.1142
 Red. masses --      3.6342                 6.3426                 6.1608
 Frc consts  --      0.7512                 1.5333                 1.6790
 IR Inten    --      0.0241                 8.4794                 3.9592

                     31                     32                     33
                      B                      A                      B
 Frequencies --    682.9753               687.4167               730.2351
 Red. masses --      3.4606                 3.3717                 6.6875
 Frc consts  --      0.9511                 0.9387                 2.1011
 IR Inten    --      4.6543                 5.1030                 2.4038

                     34                     35                     36
                      A                      B                      A
 Frequencies --    737.1683               756.6640               758.7447
 Red. masses --      6.4468                 1.3759                 1.3654
 Frc consts  --      2.0641                 0.4641                 0.4631
 IR Inten    --      2.4424                25.3850                18.2826

                     37                     38                     39
                      B                      A                      B
 Frequencies --    784.3838               790.2480               805.4398
 Red. masses --      3.7153                 3.5679                 3.6647
 Frc consts  --      1.3468                 1.3128                 1.4007
 IR Inten    --      7.4565                 4.0716                 2.4336

                     40                     41                     42
                      A                      B                      A
 Frequencies --    814.9443               815.8911               864.2062
 Red. masses --      1.6013                 1.7723                 4.6219
 Frc consts  --      0.6266                 0.6951                 2.0338
 IR Inten    --     53.6685                64.3864                 0.1019

                     43                     44                     45
                      B                      A                      B
 Frequencies --    875.4373               877.6065               940.8587
 Red. masses --      1.6394                 1.6490                 6.3191
 Frc consts  --      0.7403                 0.7483                 3.2958
 IR Inten    --      2.0939                 3.0972                27.8281

                     46                     47                     48
                      A                      B                      A
 Frequencies --    945.0861               945.3195               965.6917
 Red. masses --      1.2979                 1.3012                 1.7938
 Frc consts  --      0.6830                 0.6851                 0.9856
 IR Inten    --      0.3468                 0.6458                 8.6332

                     49                     50                     51
                      B                      A                      B
 Frequencies --    967.2515               972.7227               992.9925
 Red. masses --      1.3807                 3.0673                 1.3157
 Frc consts  --      0.7611                 1.7100                 0.7644
 IR Inten    --      1.7712                43.6559                 1.1422

                     52                     53                     54
                      A                      B                      A
 Frequencies --    993.6165              1001.1029              1055.9888
 Red. masses --      1.2997                 4.4922                 2.2401
 Frc consts  --      0.7560                 2.6525                 1.4718
 IR Inten    --      0.0568                53.3115                 0.5591

                     55                     56                     57
                      B                      A                      B
 Frequencies --   1056.2891              1094.4993              1162.8382
 Red. masses --      2.2504                 3.2521                 1.7155
 Frc consts  --      1.4794                 2.2954                 1.3667
 IR Inten    --      1.0714                37.0003                 1.6637

                     58                     59                     60
                      A                      B                      A
 Frequencies --   1180.1417              1188.6033              1190.6679
 Red. masses --      1.4534                 1.2047                 1.2500
 Frc consts  --      1.1926                 1.0028                 1.0441
 IR Inten    --     21.2152                 8.0758                 0.2659

                     61                     62                     63
                      B                      A                      B
 Frequencies --   1197.7301              1201.2360              1218.3810
 Red. masses --      1.2626                 1.1561                 1.3089
 Frc consts  --      1.0672                 0.9829                 1.1448
 IR Inten    --      1.6823                 6.8620                76.7385

                     64                     65                     66
                      A                      B                      A
 Frequencies --   1245.8435              1246.5705              1260.6661
 Red. masses --      2.1369                 2.2727                 1.7444
 Frc consts  --      1.9541                 2.0808                 1.6334
 IR Inten    --      1.6964                 8.6555                 0.0082

                     67                     68                     69
                      B                      B                      A
 Frequencies --   1278.5207              1303.3039              1305.7297
 Red. masses --      2.2647                 2.0658                 2.3031
 Frc consts  --      2.1812                 2.0674                 2.3135
 IR Inten    --    107.2380                63.6138               114.7302

                     70                     71                     72
                      A                      B                      A
 Frequencies --   1321.9606              1380.6645              1382.4004
 Red. masses --      2.0228                 3.5954                 4.6295
 Frc consts  --      2.0827                 4.0380                 5.2125
 IR Inten    --     92.5931                68.1226                41.1019

                     73                     74                     75
                      B                      A                      B
 Frequencies --   1407.9223              1413.0795              1425.7363
 Red. masses --      5.7685                 7.0400                 2.4489
 Frc consts  --      6.7371                 8.2824                 2.9329
 IR Inten    --      1.3102                 0.5999                16.4568

                     76                     77                     78
                      A                      B                      A
 Frequencies --   1442.7917              1475.1444              1477.4354
 Red. masses --      2.3350                 2.2726                 2.3647
 Frc consts  --      2.8638                 2.9136                 3.0411
 IR Inten    --      0.2199                21.5343                17.4347

                     79                     80                     81
                      B                      A                      B
 Frequencies --   1512.8695              1520.6768              1555.6104
 Red. masses --      2.4480                 2.7501                 3.3530
 Frc consts  --      3.3012                 3.7469                 4.7806
 IR Inten    --      5.3893                14.2663                43.8481

                     82                     83                     84
                      A                      B                      A
 Frequencies --   1558.0382              1626.9870              1632.8997
 Red. masses --      3.5508                 7.0245                 7.0124
 Frc consts  --      5.0785                10.9556                11.0164
 IR Inten    --     41.4186                 8.0420                12.8640

                     85                     86                     87
                      B                      A                      B
 Frequencies --   1653.6814              1658.0375              1672.6916
 Red. masses --      5.3233                 5.4178                 6.0784
 Frc consts  --      8.5771                 8.7754                10.0201
 IR Inten    --     12.3027                10.6453                41.5516

                     88                     89                     90
                      A                      B                      A
 Frequencies --   1673.2065              3159.8087              3159.9315
 Red. masses --      6.1744                 1.0878                 1.0878
 Frc consts  --     10.1847                 6.3993                 6.3994
 IR Inten    --     41.3517                12.4238                16.8453

                     91                     92                     93
                      B                      A                      B
 Frequencies --   3169.8443              3169.8635              3181.7851
 Red. masses --      1.0869                 1.0869                 1.0890
 Frc consts  --      6.4343                 6.4344                 6.4955
 IR Inten    --      8.0147                 0.0626                13.8254

                     94                     95                     96
                      A                      B                      A
 Frequencies --   3181.8206              3186.6784              3186.7583
 Red. masses --      1.0890                 1.0939                 1.0939
 Frc consts  --      6.4956                 6.5448                 6.5451
 IR Inten    --      1.3310                50.3337                 9.2102

                     97                     98                     99
                      B                      A                      B
 Frequencies --   3198.7055              3198.9488              3210.0443
 Red. masses --      1.0938                 1.0937                 1.0947
 Frc consts  --      6.5936                 6.5944                 6.6462
 IR Inten    --     54.8023                16.2962                16.2589

                    100                    101                    102
                      A                      B                      A
 Frequencies --   3210.2192              3763.4524              3763.5375
 Red. masses --      1.0945                 1.0664                 1.0664
 Frc consts  --      6.6459                 8.8988                 8.8992
 IR Inten    --     11.3664                58.6990                74.0884

 - Thermochemistry -
 -------------------
 Temperature   298.150 Kelvin.  Pressure   1.00000 Atm.
 Atom     1 has atomic number  6 and mass  12.00000

 Molecular mass:   286.09938 amu.
 Principal axes and moments of inertia in atomic units:
                           1         2         3
     Eigenvalues --  3994.308687888.631348602.52666
           X           -0.00304   0.00000   1.00000
           Y            1.00000   0.00000   0.00304
           Z            0.00000   1.00000   0.00000
 This molecule is an asymmetric top.
 Rotational symmetry number  2.
 Warning -- assumption of classical behavior for rotation
           may cause significant error
 Rotational temperatures (Kelvin)      0.02168     0.01098     0.01007
 Rotational constants (GHZ):           0.45183     0.22878     0.20979
 Zero-point vibrational energy     742534.2 (Joules/Mol)
                                  177.46994 (Kcal/Mol)
 Warning -- explicit consideration of  28 degrees of freedom as
           vibrations may cause significant error
 Vibrational temperatures:     18.09    78.03    78.05   154.42   154.77
          (Kelvin)            213.64   215.93   277.09   335.15   340.56
                              436.83   446.23   458.63   507.04   517.43
                              533.33   615.00   618.21   635.16   638.37
                              710.99   743.27   766.03   776.64   780.19
                              781.54   834.65   852.19   921.62   978.53
                              982.65   989.04  1050.65  1060.62  1088.67
                             1091.66  1128.55  1136.99  1158.85  1172.52
                             1173.89  1243.40  1259.56  1262.68  1353.69
                             1359.77  1360.10  1389.41  1391.66  1399.53
                             1428.69  1429.59  1440.36  1519.33  1519.76
                             1574.74  1673.06  1697.96  1710.13  1713.11
                             1723.27  1728.31  1752.98  1792.49  1793.54
                             1813.82  1839.51  1875.16  1878.65  1902.01
                             1986.47  1988.97  2025.69  2033.11  2051.32
                             2075.86  2122.40  2125.70  2176.68  2187.91
                             2238.18  2241.67  2340.87  2349.38  2379.28
                             2385.55  2406.63  2407.37  4546.26  4546.44
                             4560.70  4560.73  4577.88  4577.93  4584.92
                             4585.03  4602.22  4602.57  4618.54  4618.79
                             5414.77  5414.89

 Zero-point correction=                           0.282816 (Hartree/Particle)
 Thermal correction to Energy=                    0.299674
 Thermal correction to Enthalpy=                  0.300618
 Thermal correction to Gibbs Free Energy=         0.238255
 Sum of electronic and zero-point Energies=           -920.805346
 Sum of electronic and thermal Energies=              -920.788489
 Sum of electronic and thermal Enthalpies=            -920.787545
 Sum of electronic and thermal Free Energies=         -920.849907

                     E (Thermal)             CV                S
                      KCal/Mol        Cal/Mol-Kelvin    Cal/Mol-Kelvin
 Total                  188.048             69.348            131.254
 Electronic               0.000              0.000              0.000
 Translational            0.889              2.981             42.851
 Rotational               0.889              2.981             32.583
 Vibrational            186.271             63.387             55.820
 Vibration     1          0.593              1.987              7.556
 Vibration     2          0.596              1.976              4.657
 Vibration     3          0.596              1.976              4.656
 Vibration     4          0.606              1.943              3.317
 Vibration     5          0.606              1.943              3.312
 Vibration     6          0.618              1.904              2.691
 Vibration     7          0.618              1.903              2.671
 Vibration     8          0.635              1.850              2.203
 Vibration     9          0.654              1.791              1.856
 Vibration    10          0.656              1.785              1.828
 Vibration    11          0.695              1.667              1.397
 Vibration    12          0.699              1.654              1.362
 Vibration    13          0.705              1.638              1.316
 Vibration    14          0.729              1.570              1.155
 Vibration    15          0.734              1.555              1.124
 Vibration    16          0.743              1.532              1.077
 Vibration    17          0.789              1.411              0.867
 Vibration    18          0.791              1.406              0.860
 Vibration    19          0.801              1.380              0.822
 Vibration    20          0.803              1.375              0.815
 Vibration    21          0.850              1.263              0.673
 Vibration    22          0.872              1.213              0.618
 Vibration    23          0.887              1.178              0.582
 Vibration    24          0.895              1.162              0.566
 Vibration    25          0.897              1.157              0.560
 Vibration    26          0.898              1.155              0.558
 Vibration    27          0.937              1.074              0.485
 Vibration    28          0.950              1.048              0.463

 Optimization completed.
    -- Stationary point found.
 Normal termination of Gaussian 16 at Mon Sep 18 06:16:49 2023.
