 Gaussian 16, Revision B.01,
 Gaussian 16:  EM64L-G16RevB.01 20-Dec-2017

 ----------------------------------------------------------------------
 # opt freq b3lyp/6-31+g(d) empiricaldispersion=gd3 scf=maxcycle=1000 v
 olume
 ----------------------------------------------------------------------

 -------------------
 Title Card Required
 -------------------
 Symbolic Z-matrix:
 Charge =  0 Multiplicity = 1

 SCF Done:  E(RB3LYP) =  -401.181597701     A.U. after   13 cycles
 SCF Done:  E(RB3LYP) =  -401.181597808     A.U. after    8 cycles
 SCF Done:  E(RB3LYP) =  -401.181597663     A.U. after    9 cycles
 SCF Done:  E(RB3LYP) =  -401.181598038     A.U. after    9 cycles
 SCF Done:  E(RB3LYP) =  -401.181598053     A.U. after    8 cycles
 SCF Done:  E(RB3LYP) =  -401.181598045     A.U. after    8 cycles
 Optimization completed.
    -- Stationary point found.
 Normal termination of Gaussian 16 at Mon Sep 18 06:00:31 2023.

 ---------------------------------------------------------------------
 #N Geom=AllCheck Guess=TCheck SCRF=Check GenChk RB3LYP/6-31+G(d) Freq
 ---------------------------------------------------------------------

 Structure from the checkpoint file:  "molecule_16-volume.chk"
 -------------------
 Title Card Required
 -------------------
 Charge =  0 Multiplicity = 1

                         Standard orientation:
 ---------------------------------------------------------------------
 Center     Atomic      Atomic             Coordinates (Angstroms)
 Number     Number       Type             X           Y           Z
 ---------------------------------------------------------------------
      1          6           0        0.105039    0.344936    0.673949
      2          6           0       -0.712450    1.266757   -0.296059
      3          6           0       -2.091836    0.584568   -0.397322
      4          6           0       -1.755660   -0.890528   -0.161700
      5          1           0        0.330053    0.866821    1.610408
      6          1           0       -0.234414    1.301246   -1.281492
      7          1           0       -0.759529    2.292805    0.077528
      8          1           0       -2.757400    0.942186    0.396470
      9          1           0       -2.577272    0.764284   -1.362096
     10          1           0       -2.619097   -1.484607    0.156953
     11          1           0       -1.342196   -1.341698   -1.080918
     12          1           0       -0.260383   -1.667238    1.069783
     13          7           0       -0.772658   -0.802263    0.925952
     14          6           0        1.459543    0.040821    0.046974
     15          8           0        2.430925    0.763466    0.123420
     16          8           0        1.473557   -1.127982   -0.651717
     17          1           0        2.365176   -1.221154   -1.036978
 ---------------------------------------------------------------------

 SCF Done:  E(RB3LYP) =  -401.181598045     A.U. after    1 cycles

 The electronic state is 1-A.
 Alpha  occ. eigenvalues --  -19.21809 -19.15839 -14.33233 -10.33256 -10.23826
 Alpha  occ. eigenvalues --  -10.21505 -10.20442 -10.19491  -1.12155  -1.03163
 Alpha  occ. eigenvalues --   -0.93008  -0.77583  -0.75742  -0.65767  -0.60127
 Alpha  occ. eigenvalues --   -0.59404  -0.53656  -0.50363  -0.49085  -0.47336
 Alpha  occ. eigenvalues --   -0.45396  -0.42317  -0.40604  -0.39355  -0.38712
 Alpha  occ. eigenvalues --   -0.36559  -0.35469  -0.34435  -0.33390  -0.29650
 Alpha  occ. eigenvalues --   -0.23257
 Alpha virt. eigenvalues --   -0.01318  -0.00837   0.01337   0.02473   0.02652
 Alpha virt. eigenvalues --    0.03916   0.04946   0.05493   0.05933   0.06740
 Alpha virt. eigenvalues --    0.09236   0.09655   0.10207   0.10610   0.11109

 Mulliken charges:
               1
     1  C   -0.214825
     2  C   -0.304936
     3  C   -0.421164
     4  C   -0.291042
     5  H    0.219938
     6  H    0.211925
     7  H    0.216952
     8  H    0.214629
     9  H    0.201710
    10  H    0.191190
    11  H    0.198632
    12  H    0.384990
    13  N   -0.435101
    14  C    0.368654
    15  O   -0.439213
    16  O   -0.609364
    17  H    0.507024
 Sum of Mulliken charges =   0.00000

 Dipole moment (field-independent basis, Debye):
    X=             -1.1647    Y=             -1.2050    Z=             -1.3526  Tot=              2.1536
 Quadrupole moment (field-independent basis, Debye-Ang):
   XX=            -51.4777   YY=            -47.5736   ZZ=            -48.9122
   XY=             -6.5611   XZ=             -0.7243   YZ=              0.4562

  Exact polarizability:  80.868   3.069  69.971   0.491   2.827  61.201
 Approx polarizability: 102.754   7.842  99.396   0.833   5.883  88.240

                      1                      2                      3
                      A                      A                      A
 Frequencies --     32.5143                49.1928               203.8567
 Red. masses --      5.3843                 2.7922                 3.2247
 Frc consts  --      0.0034                 0.0040                 0.0790
 IR Inten    --      2.6025                 0.4456                 0.2696

                      4                      5                      6
                      A                      A                      A
 Frequencies --    248.9751               317.2320               432.3352
 Red. masses --      2.4963                 2.8545                 5.6935
 Frc consts  --      0.0912                 0.1692                 0.6270
 IR Inten    --      0.8944                 3.6667                 9.2816

                      7                      8                      9
                      A                      A                      A
 Frequencies --    558.4885               611.0873               616.7977
 Red. masses --      2.0388                 1.5264                 2.7340
 Frc consts  --      0.3747                 0.3358                 0.6128
 IR Inten    --     42.6254                45.5354                26.7852

                     10                     11                     12
                      A                      A                      A
 Frequencies --    648.0732               744.4334               782.6345
 Red. masses --      2.0898                 3.5878                 2.3406
 Frc consts  --      0.5171                 1.1715                 0.8447
 IR Inten    --     98.7431                35.1936                53.2580

                     13                     14                     15
                      A                      A                      A
 Frequencies --    841.2099               883.8896               926.1455
 Red. masses --      2.3767                 2.1042                 2.6024
 Frc consts  --      0.9909                 0.9686                 1.3152
 IR Inten    --     28.0131                14.4626                 9.4912

                     16                     17                     18
                      A                      A                      A
 Frequencies --    933.8435               949.9361               996.4696
 Red. masses --      1.9469                 2.2915                 2.0757
 Frc consts  --      1.0003                 1.2183                 1.2144
 IR Inten    --      1.4437                16.6596                 4.4863

                     19                     20                     21
                      A                      A                      A
 Frequencies --   1061.5324              1114.0421              1151.9683
 Red. masses --      1.7273                 1.9158                 3.7753
 Frc consts  --      1.1468                 1.4009                 2.9518
 IR Inten    --     18.1059                31.8563                46.0361

                     22                     23                     24
                      A                      A                      A
 Frequencies --   1170.5694              1205.2722              1217.1598
 Red. masses --      2.1302                 1.3739                 1.3682
 Frc consts  --      1.7198                 1.1759                 1.1942
 IR Inten    --    138.4312                23.6217                11.9894

                     25                     26                     27
                      A                      A                      A
 Frequencies --   1252.3776              1301.7601              1335.1951
 Red. masses --      1.2314                 1.2101                 1.2946
 Frc consts  --      1.1380                 1.2082                 1.3599
 IR Inten    --      4.4272                 6.3705                 5.0380

                     28                     29                     30
                      A                      A                      A
 Frequencies --   1341.3395              1354.6549              1368.6700
 Red. masses --      1.6387                 1.6013                 1.2450
 Frc consts  --      1.7371                 1.7313                 1.3741
 IR Inten    --     13.2435                13.3461                10.0957

                     31                     32                     33
                      A                      A                      A
 Frequencies --   1380.8529              1469.1283              1510.7653
 Red. masses --      1.4482                 1.3541                 1.0898
 Frc consts  --      1.6269                 1.7220                 1.4655
 IR Inten    --     14.6918                21.6740                 2.5471

                     34                     35                     36
                      A                      A                      A
 Frequencies --   1525.3813              1546.0273              1811.0142
 Red. masses --      1.0919                 1.1005                 9.6769
 Frc consts  --      1.4969                 1.5498                18.6995
 IR Inten    --      3.3143                 0.1677               341.6598

                     37                     38                     39
                      A                      A                      A
 Frequencies --   2970.1117              3064.0766              3065.8845
 Red. masses --      1.0725                 1.0629                 1.0717
 Frc consts  --      5.5745                 5.8797                 5.9352
 IR Inten    --     77.0241                21.6910                25.0499

                     40                     41                     42
                      A                      A                      A
 Frequencies --   3070.5416              3086.8747              3111.6266
 Red. masses --      1.0817                 1.0888                 1.1018
 Frc consts  --      6.0087                 6.1127                 6.2852
 IR Inten    --     16.7575                48.8896                26.2507

                     43                     44                     45
                      A                      A                      A
 Frequencies --   3128.2593              3552.3856              3684.7888
 Red. masses --      1.1030                 1.0751                 1.0646
 Frc consts  --      6.3595                 7.9935                 8.5163
 IR Inten    --     33.6423                 4.3950                61.2578

 - Thermochemistry -
 -------------------
 Temperature   298.150 Kelvin.  Pressure   1.00000 Atm.
 Atom     1 has atomic number  6 and mass  12.00000

 Molecular mass:   115.06333 amu.
 Principal axes and moments of inertia in atomic units:
                           1         2         3
     Eigenvalues --   457.228751162.246171351.68429
           X            0.99986  -0.01569   0.00634
           Y            0.01570   0.99988  -0.00150
           Z           -0.00632   0.00160   0.99998
 This molecule is an asymmetric top.
 Rotational symmetry number  1.
 Warning -- assumption of classical behavior for rotation
           may cause significant error
 Rotational temperatures (Kelvin)      0.18943     0.07452     0.06408
 Rotational constants (GHZ):           3.94713     1.55280     1.33518
 Zero-point vibrational energy     380588.2 (Joules/Mol)
                                   90.96276 (Kcal/Mol)
 Warning -- explicit consideration of   9 degrees of freedom as
           vibrations may cause significant error
 Vibrational temperatures:     46.78    70.78   293.30   358.22   456.43
          (Kelvin)            622.03   803.54   879.22   887.43   932.43
                             1071.07  1126.04  1210.31  1271.72  1332.52
                             1343.59  1366.75  1433.70  1527.31  1602.86
                             1657.43  1684.19  1734.12  1751.22  1801.89
                             1872.94  1921.05  1929.89  1949.05  1969.21
                             1986.74  2113.75  2173.65  2194.68  2224.39
                             2605.65  4273.33  4408.52  4411.12  4417.82
                             4441.32  4476.94  4500.87  5111.09  5301.59

 Zero-point correction=                           0.144958 (Hartree/Particle)
 Thermal correction to Energy=                    0.152541
 Thermal correction to Enthalpy=                  0.153485
 Thermal correction to Gibbs Free Energy=         0.111544
 Sum of electronic and zero-point Energies=           -401.036640
 Sum of electronic and thermal Energies=              -401.029057
 Sum of electronic and thermal Enthalpies=            -401.028113
 Sum of electronic and thermal Free Energies=         -401.070054

                     E (Thermal)             CV                S
                      KCal/Mol        Cal/Mol-Kelvin    Cal/Mol-Kelvin
 Total                   95.721             27.581             88.271
 Electronic               0.000              0.000              0.000
 Translational            0.889              2.981             40.136
 Rotational               0.889              2.981             28.065
 Vibrational             93.943             21.619             20.070
 Vibration     1          0.594              1.983              5.670
 Vibration     2          0.595              1.978              4.850
 Vibration     3          0.640              1.834              2.098
 Vibration     4          0.662              1.764              1.738
 Vibration     5          0.704              1.641              1.324
 Vibration     6          0.793              1.400              0.851
 Vibration     7          0.914              1.121              0.527
 Vibration     8          0.970              1.008              0.431
 Vibration     9          0.976              0.996              0.422

 Optimization completed.
    -- Stationary point found.
 Normal termination of Gaussian 16 at Mon Sep 18 06:01:28 2023.
