 Gaussian 16, Revision B.01,
 Gaussian 16:  EM64L-G16RevB.01 20-Dec-2017

 ---------------------------------------------------------
 # opt freq b3lyp/6-31+g(d) empiricaldispersion=gd3 volume
 ---------------------------------------------------------

 -------------------
 Title Card Required
 -------------------
 Symbolic Z-matrix:
 Charge =  0 Multiplicity = 1

 SCF Done:  E(RB3LYP) =  -652.828721812     A.U. after   16 cycles
 SCF Done:  E(RB3LYP) =  -652.828721628     A.U. after   11 cycles
 SCF Done:  E(RB3LYP) =  -652.828721995     A.U. after   10 cycles
 Optimization completed.
    -- Stationary point found.
 Normal termination of Gaussian 16 at Sun Sep 17 16:52:38 2023.

 ---------------------------------------------------------------------
 #N Geom=AllCheck Guess=TCheck SCRF=Check GenChk RB3LYP/6-31+G(d) Freq
 ---------------------------------------------------------------------

 Structure from the checkpoint file:  "molecule_17.chk"
 -------------------
 Title Card Required
 -------------------
 Charge =  0 Multiplicity = 1

                         Standard orientation:
 ---------------------------------------------------------------------
 Center     Atomic      Atomic             Coordinates (Angstroms)
 Number     Number       Type             X           Y           Z
 ---------------------------------------------------------------------
      1          6           0       -5.025278   -0.052020    1.211150
      2          6           0       -3.631271   -0.013131    1.215287
      3          6           0       -2.917606   -0.011796    0.000079
      4          6           0       -3.631405   -0.050220   -1.214447
      5          6           0       -5.025411   -0.088976   -1.208968
      6          6           0       -5.726548   -0.090043    0.001429
      7          1           0       -5.565278   -0.052917    2.154408
      8          1           0       -3.083939    0.016087    2.152951
      9          1           0       -3.084177   -0.049583   -2.152626
     10          1           0       -5.565518   -0.118612   -2.151699
     11          1           0       -6.812930   -0.120471    0.001954
     12          6           0       -1.488727    0.027704   -0.000605
     13          6           0       -0.272388    0.060270   -0.001076
     14          6           0        1.154314    0.097533   -0.001544
     15          6           0        1.836807    1.331179   -0.017959
     16          6           0        1.901107   -1.103186    0.014617
     17          6           0        3.228254    1.358693   -0.018188
     18          1           0        1.265646    2.254430   -0.030295
     19          6           0        3.288677   -1.067653    0.014257
     20          1           0        1.374016   -2.052454    0.027275
     21          6           0        3.964996    0.164594   -0.002160
     22          1           0        3.750258    2.313619   -0.030864
     23          1           0        3.872366   -1.983533    0.026559
     24          6           0        5.443280    0.214004   -0.002666
     25          8           0        6.172253   -0.763191    0.010439
     26          1           0        5.878724    1.237250   -0.016413
 ---------------------------------------------------------------------

 SCF Done:  E(RB3LYP) =  -652.828721995     A.U. after    1 cycles

 The electronic state is 1-A.
 Alpha  occ. eigenvalues --  -19.16119 -10.28698 -10.24505 -10.23375 -10.22444
 Alpha  occ. eigenvalues --  -10.22100 -10.22017 -10.21972 -10.21811 -10.21363
 Alpha  occ. eigenvalues --  -10.21362 -10.21218 -10.21172 -10.21097 -10.21078
 Alpha  occ. eigenvalues --  -10.20851  -1.05319  -0.88846  -0.87771  -0.81453
 Alpha  occ. eigenvalues --   -0.79011  -0.77471  -0.76507  -0.73983  -0.67791
 Alpha  occ. eigenvalues --   -0.63793  -0.63203  -0.62416  -0.59135  -0.56358
 Alpha  occ. eigenvalues --   -0.54413  -0.51076  -0.49592  -0.48112  -0.47156
 Alpha  occ. eigenvalues --   -0.46115  -0.45084  -0.44767  -0.44089  -0.43998
 Alpha  occ. eigenvalues --   -0.41988  -0.39909  -0.39443  -0.38793  -0.37502
 Alpha  occ. eigenvalues --   -0.37108  -0.36621  -0.32220  -0.32171  -0.28060
 Alpha  occ. eigenvalues --   -0.27142  -0.26947  -0.25271  -0.24700
 Alpha virt. eigenvalues --   -0.08795  -0.04916  -0.03394  -0.02659  -0.00410
 Alpha virt. eigenvalues --   -0.00395   0.00453   0.01487   0.01968   0.02490
 Alpha virt. eigenvalues --    0.03172   0.04141   0.04262   0.04469   0.04536

 Mulliken charges:
               1
     1  C   -0.040841
     2  C   -0.292850
     3  C   -0.178233
     4  C   -0.292802
     5  C   -0.040795
     6  C   -0.206923
     7  H    0.185060
     8  H    0.194875
     9  H    0.194875
    10  H    0.185060
    11  H    0.183440
    12  C    0.141483
    13  C    0.102981
    14  C   -0.194551
    15  C   -0.197403
    16  C   -0.388145
    17  C   -0.759419
    18  H    0.201339
    19  C    0.307170
    20  H    0.202199
    21  C    0.527566
    22  H    0.190332
    23  H    0.220591
    24  C   -0.020589
    25  O   -0.380362
    26  H    0.155940
 Sum of Mulliken charges =   0.00000

 Dipole moment (field-independent basis, Debye):
    X=             -3.9756    Y=              1.7248    Z=             -0.0230  Tot=              4.3337
 Quadrupole moment (field-independent basis, Debye-Ang):
   XX=           -103.9123   YY=            -91.0219   ZZ=            -89.8431
   XY=             11.7782   XZ=             -0.1592   YZ=              0.0328

  Exact polarizability: 358.131   0.223 132.022  -0.001  -0.027 124.949
 Approx polarizability: 491.735  -6.770 218.835   0.097  -0.089 202.238

 ******    1 imaginary frequencies (negative Signs) ******

                      1                      2                      3
                      A                      A                      A
 Frequencies --    -23.9102                33.4368                37.5747
 Red. masses --      3.7055                 6.3846                 6.3561
 Frc consts  --      0.0012                 0.0042                 0.0053
 IR Inten    --      0.5027                 0.0176                 0.1975

                      4                      5                      6
                      A                      A                      A
 Frequencies --     89.2659               131.0464               152.9511
 Red. masses --      6.8177                 5.6554                 3.9561
 Frc consts  --      0.0320                 0.0572                 0.0545
 IR Inten    --      3.7602                 1.7695                 6.1149

                      7                      8                      9
                      A                      A                      A
 Frequencies --    208.9730               246.3616               248.3951
 Red. masses --      7.8043                 5.9268                 3.3931
 Frc consts  --      0.2008                 0.2119                 0.1233
 IR Inten    --      3.9513                 6.4779                 2.0230

                     10                     11                     12
                      A                      A                      A
 Frequencies --    352.0293               385.4836               410.7084
 Red. masses --      5.1595                 4.7302                 2.9146
 Frc consts  --      0.3767                 0.4141                 0.2897
 IR Inten    --      1.3070                 4.5178                 0.0021

                     13                     14                     15
                      A                      A                      A
 Frequencies --    419.5752               452.7776               503.4086
 Red. masses --      2.9331                 7.9314                 5.1569
 Frc consts  --      0.3042                 0.9580                 0.7700
 IR Inten    --      1.0386                 3.6244                 0.7668

                     16                     17                     18
                      A                      A                      A
 Frequencies --    511.0116               566.2625               573.5685
 Red. masses --      4.3518                 4.3571                 4.5345
 Frc consts  --      0.6696                 0.8232                 0.8789
 IR Inten    --      3.1773                 9.8354                10.9421

                     19                     20                     21
                      A                      A                      A
 Frequencies --    599.8171               635.4682               651.4552
 Red. masses --      7.1310                 6.5994                 7.2007
 Frc consts  --      1.5116                 1.5702                 1.8005
 IR Inten    --      0.8005                 0.0596                 1.0171

                     22                     23                     24
                      A                      A                      A
 Frequencies --    702.8155               710.4362               729.5072
 Red. masses --      1.9047                 6.1355                 3.6123
 Frc consts  --      0.5543                 1.8245                 1.1327
 IR Inten    --     37.1903                29.9485                 1.5997

                     25                     26                     27
                      A                      A                      A
 Frequencies --    771.8422               825.5977               846.2827
 Red. masses --      1.7965                 5.0831                 1.4272
 Frc consts  --      0.6306                 2.0413                 0.6022
 IR Inten    --     42.3347                50.2172                36.8364

                     28                     29                     30
                      A                      A                      A
 Frequencies --    855.1443               860.3910               870.5402
 Red. masses --      1.2470                 1.3152                 6.0074
 Frc consts  --      0.5373                 0.5736                 2.6823
 IR Inten    --      0.0595                12.9838                15.4155

                     31                     32                     33
                      A                      A                      A
 Frequencies --    933.1831               975.4112               980.7818
 Red. masses --      1.4075                 1.3347                 1.3647
 Frc consts  --      0.7221                 0.7482                 0.7735
 IR Inten    --      2.3115                 0.0669                 0.0000

                     34                     35                     36
                      A                      A                      A
 Frequencies --    997.2464              1003.9405              1013.2572
 Red. masses --      1.3580                 1.2858                 6.2696
 Frc consts  --      0.7957                 0.7635                 3.7926
 IR Inten    --      0.0007                 0.0255                 1.5322

                     37                     38                     39
                      A                      A                      A
 Frequencies --   1029.1859              1035.2318              1052.6767
 Red. masses --      1.7707                 2.8034                 2.2705
 Frc consts  --      1.1050                 1.7701                 1.4824
 IR Inten    --      1.6561                 2.4682                 6.5804

                     40                     41                     42
                      A                      A                      A
 Frequencies --   1109.5470              1145.8364              1163.8601
 Red. masses --      1.6261                 1.4047                 3.7397
 Frc consts  --      1.1795                 1.0866                 2.9846
 IR Inten    --      5.0328                 5.4062                14.1118

                     43                     44                     45
                      A                      A                      A
 Frequencies --   1200.8824              1206.5957              1217.6497
 Red. masses --      1.1098                 1.3743                 1.1478
 Frc consts  --      0.9429                 1.1788                 1.0027
 IR Inten    --      0.0113                76.9148                 1.6236

                     46                     47                     48
                      A                      A                      A
 Frequencies --   1238.2618              1325.8708              1329.1044
 Red. masses --      2.1310                 3.4303                 2.6691
 Frc consts  --      1.9251                 3.5529                 2.7780
 IR Inten    --     71.2563                 0.1316                 6.6419

                     49                     50                     51
                      A                      A                      A
 Frequencies --   1340.4590              1342.6909              1364.0210
 Red. masses --      3.4380                 2.2067                 1.6589
 Frc consts  --      3.6396                 2.3440                 1.8185
 IR Inten    --     22.9240                21.6132                 0.5114

                     52                     53                     54
                      A                      A                      A
 Frequencies --   1429.2822              1456.5574              1481.5583
 Red. masses --      1.5973                 1.8956                 2.1726
 Frc consts  --      1.9225                 2.3694                 2.8098
 IR Inten    --     17.2810                 6.5897                 4.3443

                     55                     56                     57
                      A                      A                      A
 Frequencies --   1531.2291              1550.7958              1597.8459
 Red. masses --      2.1528                 2.5778                 6.1667
 Frc consts  --      2.9739                 3.6526                 9.2763
 IR Inten    --     13.8403                 6.3508                29.2726

                     58                     59                     60
                      A                      A                      A
 Frequencies --   1618.8995              1649.8303              1652.6963
 Red. masses --      5.0093                 5.2949                 5.4148
 Frc consts  --      7.7352                 8.4915                 8.7141
 IR Inten    --      1.1839                 2.6797               228.5208

                     61                     62                     63
                      A                      A                      A
 Frequencies --   1769.8747              2312.1391              2915.3304
 Red. masses --      9.7324                11.9978                 1.0841
 Frc consts  --     17.9620                37.7901                 5.4286
 IR Inten    --    411.7018                27.9191               147.2344

                     64                     65                     66
                      A                      A                      A
 Frequencies --   3176.7992              3181.1436              3189.7854
 Red. masses --      1.0891                 1.0857                 1.0886
 Frc consts  --      6.4756                 6.4732                 6.5260
 IR Inten    --     11.2369                 1.1304                 4.9872

                     67                     68                     69
                      A                      A                      A
 Frequencies --   3200.6684              3202.4203              3208.0529
 Red. masses --      1.0920                 1.0884                 1.0943
 Frc consts  --      6.5913                 6.5768                 6.6357
 IR Inten    --     20.2147                 1.5219                22.5982

                     70                     71                     72
                      A                      A                      A
 Frequencies --   3211.1750              3212.6889              3217.7754
 Red. masses --      1.0935                 1.0976                 1.0950
 Frc consts  --      6.6436                 6.6745                 6.6799
 IR Inten    --      7.4245                12.3077                 3.0746

 - Thermochemistry -
 -------------------
 Temperature   298.150 Kelvin.  Pressure   1.00000 Atm.
 Atom     1 has atomic number  6 and mass  12.00000

 Molecular mass:   206.07317 amu.
 Principal axes and moments of inertia in atomic units:
                           1         2         3
     Eigenvalues --   685.09392********************
           X            0.99999   0.00329  -0.00004
           Y           -0.00329   0.99999   0.00097
           Z            0.00004  -0.00097   1.00000
 This molecule is an asymmetric top.
 Rotational symmetry number  1.
 Warning -- assumption of classical behavior for rotation
           may cause significant error
 Rotational temperatures (Kelvin)      0.12643     0.00749     0.00746
 Rotational constants (GHZ):           2.63430     0.15603     0.15539
    1 imaginary frequencies ignored.
 Zero-point vibrational energy     527280.2 (Joules/Mol)
                                  126.02300 (Kcal/Mol)
 Warning -- explicit consideration of  18 degrees of freedom as
           vibrations may cause significant error
 Vibrational temperatures:     48.11    54.06   128.43   188.55   220.06
          (Kelvin)            300.67   354.46   357.39   506.49   554.62
                              590.92   603.68   651.45   724.29   735.23
                              814.73   825.24   863.00   914.30   937.30
                             1011.19  1022.16  1049.60  1110.51  1187.85
                             1217.61  1230.36  1237.91  1252.51  1342.64
                             1403.40  1411.13  1434.82  1444.45  1457.85
                             1480.77  1489.47  1514.57  1596.39  1648.60
                             1674.54  1727.80  1736.02  1751.93  1781.58
                             1907.63  1912.28  1928.62  1931.83  1962.52
                             2056.42  2095.66  2131.63  2203.10  2231.25
                             2298.94  2329.24  2373.74  2377.86  2546.45
                             3326.65  4194.51  4570.71  4576.96  4589.39
                             4605.05  4607.57  4615.67  4620.16  4622.34
                             4629.66

 Zero-point correction=                           0.200830 (Hartree/Particle)
 Thermal correction to Energy=                    0.213032
 Thermal correction to Enthalpy=                  0.213976
 Thermal correction to Gibbs Free Energy=         0.160692
 Sum of electronic and zero-point Energies=           -652.627892
 Sum of electronic and thermal Energies=              -652.615690
 Sum of electronic and thermal Enthalpies=            -652.614746
 Sum of electronic and thermal Free Energies=         -652.668030

                     E (Thermal)             CV                S
                      KCal/Mol        Cal/Mol-Kelvin    Cal/Mol-Kelvin
 Total                  133.679             48.070            112.146
 Electronic               0.000              0.000              0.000
 Translational            0.889              2.981             41.873
 Rotational               0.889              2.981             32.887
 Vibrational            131.902             42.108             37.386
 Vibration     1          0.594              1.983              5.614
 Vibration     2          0.594              1.982              5.383
 Vibration     3          0.602              1.957              3.676
 Vibration     4          0.612              1.922              2.931
 Vibration     5          0.619              1.899              2.635
 Vibration     6          0.642              1.827              2.053
 Vibration     7          0.661              1.769              1.756
 Vibration     8          0.662              1.765              1.742
 Vibration     9          0.729              1.571              1.157
 Vibration    10          0.754              1.501              1.018
 Vibration    11          0.775              1.447              0.924
 Vibration    12          0.782              1.428              0.893
 Vibration    13          0.811              1.355              0.787
 Vibration    14          0.859              1.242              0.650
 Vibration    15          0.866              1.226              0.631
 Vibration    16          0.922              1.104              0.511
 Vibration    17          0.930              1.088              0.497
 Vibration    18          0.958              1.032              0.450

                           ! Non-Optimized Parameters !
 Normal termination of Gaussian 16 at Sun Sep 17 16:56:29 2023.
