 Gaussian 16, Revision B.01,
 Gaussian 16:  EM64L-G16RevB.01 20-Dec-2017

 ---------------------------------------------------------
 # opt freq b3lyp/6-31+g(d) empiricaldispersion=gd3 volume
 ---------------------------------------------------------

 -------------
 ML molecule86
 -------------
 Symbolic Z-matrix:
 Charge =  0 Multiplicity = 1

 SCF Done:  E(RB3LYP) =  -1090.29517892     A.U. after   16 cycles
 SCF Done:  E(RB3LYP) =  -1084.39245551     A.U. after   20 cycles
 SCF Done:  E(RB3LYP) =  -1090.20456290     A.U. after   16 cycles
 SCF Done:  E(RB3LYP) =  -1090.33799783     A.U. after   14 cycles
 SCF Done:  E(RB3LYP) =  -1090.34724544     A.U. after   15 cycles
 SCF Done:  E(RB3LYP) =  -1090.34948688     A.U. after   14 cycles
 SCF Done:  E(RB3LYP) =  -1090.36205024     A.U. after   13 cycles
 SCF Done:  E(RB3LYP) =  -1090.36102502     A.U. after   16 cycles
 SCF Done:  E(RB3LYP) =  -1090.37361721     A.U. after   14 cycles
 SCF Done:  E(RB3LYP) =  -1090.37802524     A.U. after   13 cycles
 SCF Done:  E(RB3LYP) =  -1090.39471526     A.U. after   12 cycles
 SCF Done:  E(RB3LYP) =  -1090.39471919     A.U. after   12 cycles
 SCF Done:  E(RB3LYP) =  -1090.39472224     A.U. after   12 cycles
 SCF Done:  E(RB3LYP) =  -1090.39472248     A.U. after   11 cycles
 SCF Done:  E(RB3LYP) =  -1090.39472310     A.U. after   12 cycles
 SCF Done:  E(RB3LYP) =  -1090.39472392     A.U. after   12 cycles
 SCF Done:  E(RB3LYP) =  -1090.39472405     A.U. after   11 cycles
 SCF Done:  E(RB3LYP) =  -1090.39472348     A.U. after   12 cycles
 SCF Done:  E(RB3LYP) =  -1090.39472414     A.U. after   12 cycles
 Optimization completed.
    -- Stationary point found.
 Normal termination of Gaussian 16 at Mon Sep 18 14:44:31 2023.

 ---------------------------------------------------------------------
 #N Geom=AllCheck Guess=TCheck SCRF=Check GenChk RB3LYP/6-31+G(d) Freq
 ---------------------------------------------------------------------

 Structure from the checkpoint file:  "molecule_86.chk"
 -------------
 ML molecule86
 -------------
 Charge =  0 Multiplicity = 1

                         Standard orientation:
 ---------------------------------------------------------------------
 Center     Atomic      Atomic             Coordinates (Angstroms)
 Number     Number       Type             X           Y           Z
 ---------------------------------------------------------------------
      1          6           0        3.539597   -0.270735   -0.018049
      2          6           0        2.692133   -0.504638   -1.104373
      3          6           0        1.433857    0.097161   -1.132831
      4          6           0        1.038478    0.915836   -0.073153
      5          6           0        1.885122    1.150931    1.007962
      6          6           0        3.148595    0.555512    1.036727
      7          1           0        3.016179   -1.143088   -1.919673
      8          1           0        3.821107    0.729528    1.870204
      9          8           0       -0.181394    1.579594   -0.110509
     10          6           0       -1.352415    0.865399   -0.051384
     11          6           0       -1.426673   -0.467990    0.370976
     12          6           0       -2.511808    1.567420   -0.407012
     13          6           0       -2.667665   -1.097798    0.429313
     14          6           0       -3.747245    0.936158   -0.345455
     15          1           0       -2.422053    2.600570   -0.727019
     16          6           0       -3.837098   -0.406054    0.071459
     17          1           0       -2.733310   -2.130468    0.757971
     18          1           0       -4.648045    1.474964   -0.622424
     19          1           0        0.760748   -0.064241   -1.969276
     20          1           0       -0.528466   -1.005293    0.653945
     21          6           0       -5.110173   -1.060547    0.131086
     22          7           0       -6.145037   -1.592012    0.178833
     23          1           0        1.553346    1.798077    1.813791
     24         17           0        5.125804   -1.025685    0.016654
 ---------------------------------------------------------------------

 SCF Done:  E(RB3LYP) =  -1090.39472414     A.U. after    1 cycles

 The electronic state is 1-A.
 Alpha  occ. eigenvalues -- -101.56933 -19.22602 -14.34693 -10.29264 -10.28374
 Alpha  occ. eigenvalues --  -10.27746 -10.24942 -10.23940 -10.23634 -10.23531
 Alpha  occ. eigenvalues --  -10.23314 -10.23257 -10.23067 -10.22917 -10.22681
 Alpha  occ. eigenvalues --  -10.22450  -9.48444  -7.24857  -7.23875  -7.23847
 Alpha  occ. eigenvalues --   -1.11469  -0.91821  -0.91453  -0.89137  -0.86058
 Alpha  occ. eigenvalues --   -0.80150  -0.78956  -0.78768  -0.75388  -0.67734
 Alpha  occ. eigenvalues --   -0.65784  -0.65216  -0.61945  -0.58258  -0.57586
 Alpha  occ. eigenvalues --   -0.52365  -0.51405  -0.51337  -0.48361  -0.47972
 Alpha  occ. eigenvalues --   -0.46348  -0.46159  -0.44528  -0.43756  -0.42975
 Alpha  occ. eigenvalues --   -0.41373  -0.40922  -0.40555  -0.38336  -0.38159
 Alpha  occ. eigenvalues --   -0.36892  -0.34944  -0.34062  -0.33697  -0.33159
 Alpha  occ. eigenvalues --   -0.29437  -0.28932  -0.27003  -0.25261
 Alpha virt. eigenvalues --   -0.06074  -0.05292  -0.04009  -0.03837  -0.01354
 Alpha virt. eigenvalues --   -0.00182   0.00419   0.01138   0.01459   0.02000
 Alpha virt. eigenvalues --    0.02248   0.02768   0.03688   0.03924   0.04563

 Mulliken charges:
               1
     1  C    0.073008
     2  C   -0.285767
     3  C   -0.000774
     4  C   -0.142909
     5  C    0.074659
     6  C   -0.394355
     7  H    0.208723
     8  H    0.208993
     9  O   -0.326844
    10  C   -0.235360
    11  C    0.809950
    12  C   -0.226628
    13  C   -0.710427
    14  C   -0.315560
    15  H    0.204768
    16  C    0.570989
    17  H    0.209500
    18  H    0.209919
    19  H    0.201344
    20  H    0.212096
    21  C   -0.218925
    22  N   -0.534142
    23  H    0.202528
    24  Cl   0.205214
 Sum of Mulliken charges =   0.00000

 Dipole moment (field-independent basis, Debye):
    X=              3.7202    Y=              1.9392    Z=             -0.1734  Tot=              4.1989
 Quadrupole moment (field-independent basis, Debye-Ang):
   XX=           -140.5914   YY=            -99.8980   ZZ=            -95.3009
   XY=            -13.3521   XZ=              4.0170   YZ=              1.5675

  Exact polarizability: 272.124   1.303 142.780   8.048   2.249 117.483
 Approx polarizability: 365.095   2.823 243.724  17.306   4.911 193.552

                      1                      2                      3
                      A                      A                      A
 Frequencies --      8.3207                36.7852                52.6125
 Red. masses --      5.0967                 7.2853                 4.7404
 Frc consts  --      0.0002                 0.0058                 0.0077
 IR Inten    --      0.7034                 0.6141                 0.4388

                      4                      5                      6
                      A                      A                      A
 Frequencies --     96.6325               125.7941               163.2449
 Red. masses --      9.1922                 9.2995                 8.2917
 Frc consts  --      0.0506                 0.0867                 0.1302
 IR Inten    --      3.2287                 2.3518                 4.0253

                      7                      8                      9
                      A                      A                      A
 Frequencies --    237.6217               261.1065               289.0824
 Red. masses --      8.1423                 8.1843                 7.7755
 Frc consts  --      0.2709                 0.3288                 0.3828
 IR Inten    --      2.3775                 0.5459                 1.9358

                     10                     11                     12
                      A                      A                      A
 Frequencies --    321.9071               408.4680               419.3852
 Red. masses --      6.3812                 7.1999                 3.0888
 Frc consts  --      0.3896                 0.7078                 0.3201
 IR Inten    --      0.1524                 4.1601                 0.5154

                     13                     14                     15
                      A                      A                      A
 Frequencies --    426.9033               429.1575               464.1751
 Red. masses --      3.0927                 7.4089                 5.0015
 Frc consts  --      0.3321                 0.8040                 0.6349
 IR Inten    --      0.0047                 2.1115                 5.1024

                     16                     17                     18
                      A                      A                      A
 Frequencies --    482.0997               541.4197               557.7899
 Red. masses --      4.7081                 3.9307                 5.1506
 Frc consts  --      0.6447                 0.6789                 0.9442
 IR Inten    --     10.1217                15.6631                 7.3249

                     19                     20                     21
                      A                      A                      A
 Frequencies --    561.4569               635.1994               644.4940
 Red. masses --      4.0752                 6.2555                 7.1537
 Frc consts  --      0.7569                 1.4871                 1.7507
 IR Inten    --     15.9066                 4.1255                 1.8137

                     22                     23                     24
                      A                      A                      A
 Frequencies --    675.4507               713.4699               716.7414
 Red. masses --      6.2559                 5.1039                 4.8991
 Frc consts  --      1.6816                 1.5307                 1.4828
 IR Inten    --      2.1479                19.7048                 4.7764

                     25                     26                     27
                      A                      A                      A
 Frequencies --    732.0295               815.8707               827.3330
 Red. masses --      3.9632                 4.5140                 1.2524
 Frc consts  --      1.2513                 1.7703                 0.5051
 IR Inten    --      1.6835                 5.1952                 1.4096

                     28                     29                     30
                      A                      A                      A
 Frequencies --    834.3837               849.3448               862.6579
 Red. masses --      1.2473                 1.6257                 1.9702
 Frc consts  --      0.5116                 0.6910                 0.8638
 IR Inten    --      0.2160                64.8626                37.8132

                     31                     32                     33
                      A                      A                      A
 Frequencies --    889.7443               958.0658               966.8440
 Red. masses --      6.2390                 1.3243                 1.3067
 Frc consts  --      2.9100                 0.7162                 0.7197
 IR Inten    --     22.7687                 0.3556                 0.5052

                     34                     35                     36
                      A                      A                      A
 Frequencies --    970.9789               977.6150              1031.5989
 Red. masses --      1.3399                 1.3379                 3.0531
 Frc consts  --      0.7443                 0.7533                 1.9143
 IR Inten    --      0.0837                 0.1669                11.3374

                     37                     38                     39
                      A                      A                      A
 Frequencies --   1032.3626              1104.1737              1134.7375
 Red. masses --      3.0443                 3.1117                 1.3212
 Frc consts  --      1.9116                 2.2353                 1.0023
 IR Inten    --     35.2385                85.6937                 8.0855

                     40                     41                     42
                      A                      A                      A
 Frequencies --   1149.8746              1196.1770              1206.2080
 Red. masses --      1.3211                 1.3657                 1.2934
 Frc consts  --      1.0292                 1.1513                 1.1087
 IR Inten    --      7.2009                 6.0467                53.9901

                     43                     44                     45
                      A                      A                      A
 Frequencies --   1227.9208              1231.8125              1285.5089
 Red. masses --      3.1007                 2.5423                 5.2297
 Frc consts  --      2.7545                 2.2728                 5.0918
 IR Inten    --      0.1258                30.8300               596.5774

                     46                     47                     48
                      A                      A                      A
 Frequencies --   1325.3559              1327.7500              1338.7853
 Red. masses --      1.3268                 7.9291                 1.9622
 Frc consts  --      1.3732                 8.2358                 2.0721
 IR Inten    --      0.2611                 4.4838                18.5875

                     49                     50                     51
                      A                      A                      A
 Frequencies --   1345.7632              1441.4947              1458.9481
 Red. masses --      2.7529                 2.9336                 3.0394
 Frc consts  --      2.9375                 3.5915                 3.8117
 IR Inten    --      7.3950                 2.8084                 4.1572

                     52                     53                     54
                      A                      A                      A
 Frequencies --   1528.0283              1545.6218              1613.3728
 Red. masses --      2.2998                 2.4311                 6.7420
 Frc consts  --      3.1637                 3.4218                10.3397
 IR Inten    --    295.8285               113.4455                 5.2673

                     55                     56                     57
                      A                      A                      A
 Frequencies --   1630.6063              1639.1373              1659.7874
 Red. masses --      7.1858                 5.6985                 5.6685
 Frc consts  --     11.2571                 9.0207                 9.2007
 IR Inten    --      0.8579                66.1314               101.8087

                     58                     59                     60
                      A                      A                      A
 Frequencies --   2332.0589              3207.6346              3208.1295
 Red. masses --     12.6785                 1.0892                 1.0891
 Frc consts  --     40.6253                 6.6029                 6.6044
 IR Inten    --     81.1027                 7.4278                 3.1534

                     61                     62                     63
                      A                      A                      A
 Frequencies --   3209.3803              3211.3354              3223.3262
 Red. masses --      1.0896                 1.0892                 1.0954
 Frc consts  --      6.6124                 6.6181                 6.7057
 IR Inten    --      1.2727                 1.7140                 2.5544

                     64                     65                     66
                      A                      A                      A
 Frequencies --   3223.6264              3225.8275              3228.0406
 Red. masses --      1.0949                 1.0954                 1.0938
 Frc consts  --      6.7036                 6.7162                 6.7153
 IR Inten    --      1.9779                 0.7098                 1.7706

 - Thermochemistry -
 -------------------
 Temperature   298.150 Kelvin.  Pressure   1.00000 Atm.
 Atom     1 has atomic number  6 and mass  12.00000

 Molecular mass:   229.02944 amu.
 Principal axes and moments of inertia in atomic units:
                           1         2         3
     Eigenvalues --  1167.51985********************
           X            1.00000   0.00009   0.00176
           Y           -0.00011   0.99994   0.01115
           Z           -0.00176  -0.01115   0.99994
 This molecule is an asymmetric top.
 Rotational symmetry number  1.
 Warning -- assumption of classical behavior for rotation
           may cause significant error
 Rotational temperatures (Kelvin)      0.07419     0.00838     0.00793
 Rotational constants (GHZ):           1.54579     0.17471     0.16516
 Zero-point vibrational energy     457443.4 (Joules/Mol)
                                  109.33161 (Kcal/Mol)
 Warning -- explicit consideration of  19 degrees of freedom as
           vibrations may cause significant error
 Vibrational temperatures:     11.97    52.93    75.70   139.03   180.99
          (Kelvin)            234.87   341.88   375.67   415.93   463.15
                              587.69   603.40   614.22   617.46   667.84
                              693.63   778.98   802.54   807.81   913.91
                              927.28   971.82  1026.52  1031.23  1053.23
                             1173.86  1190.35  1200.49  1222.02  1241.17
                             1280.14  1378.44  1391.07  1397.02  1406.57
                             1484.24  1485.34  1588.66  1632.63  1654.41
                             1721.03  1735.46  1766.70  1772.30  1849.56
                             1906.89  1910.34  1926.21  1936.25  2073.99
                             2099.10  2198.49  2223.81  2321.28  2346.08
                             2358.35  2388.06  3355.31  4615.07  4615.78
                             4617.58  4620.40  4637.65  4638.08  4641.25
                             4644.43

 Zero-point correction=                           0.174231 (Hartree/Particle)
 Thermal correction to Energy=                    0.187299
 Thermal correction to Enthalpy=                  0.188244
 Thermal correction to Gibbs Free Energy=         0.131237
 Sum of electronic and zero-point Energies=          -1090.220493
 Sum of electronic and thermal Energies=             -1090.207425
 Sum of electronic and thermal Enthalpies=           -1090.206481
 Sum of electronic and thermal Free Energies=        -1090.263487

                     E (Thermal)             CV                S
                      KCal/Mol        Cal/Mol-Kelvin    Cal/Mol-Kelvin
 Total                  117.532             49.923            119.980
 Electronic               0.000              0.000              0.000
 Translational            0.889              2.981             42.188
 Rotational               0.889              2.981             33.244
 Vibrational            115.755             43.961             44.549
 Vibration     1          0.593              1.987              8.376
 Vibration     2          0.594              1.982              5.425
 Vibration     3          0.596              1.977              4.717
 Vibration     4          0.603              1.952              3.521
 Vibration     5          0.611              1.927              3.009
 Vibration     6          0.623              1.888              2.512
 Vibration     7          0.656              1.783              1.821
 Vibration     8          0.669              1.744              1.654
 Vibration     9          0.686              1.694              1.479
 Vibration    10          0.707              1.632              1.300
 Vibration    11          0.773              1.452              0.932
 Vibration    12          0.782              1.428              0.894
 Vibration    13          0.789              1.412              0.869
 Vibration    14          0.791              1.407              0.861
 Vibration    15          0.822              1.330              0.754
 Vibration    16          0.838              1.290              0.704
 Vibration    17          0.897              1.158              0.562
 Vibration    18          0.913              1.123              0.528
 Vibration    19          0.917              1.115              0.521

 Optimization completed.
    -- Stationary point found.
 Normal termination of Gaussian 16 at Mon Sep 18 14:48:45 2023.
