 Gaussian 16, Revision B.01,
 Gaussian 16:  EM64L-G16RevB.01 20-Dec-2017

 ----------------------------------------------------------------------
 # opt freq b3lyp/6-31+g(d) geom=connectivity empiricaldispersion=gd3 v
 olume
 ----------------------------------------------------------------------

 -------------
 ML molecule88
 -------------
 Symbolic Z-matrix:
 Charge =  0 Multiplicity = 1

 SCF Done:  E(RB3LYP) =  -691.104790941     A.U. after   16 cycles
 SCF Done:  E(RB3LYP) =  -691.135010524     A.U. after   16 cycles
 SCF Done:  E(RB3LYP) =  -691.162987177     A.U. after   16 cycles
 SCF Done:  E(RB3LYP) =  -691.182951341     A.U. after   15 cycles
 SCF Done:  E(RB3LYP) =  -691.184786733     A.U. after   17 cycles
 SCF Done:  E(RB3LYP) =  -691.198765413     A.U. after   16 cycles
 SCF Done:  E(RB3LYP) =  -691.203061380     A.U. after   15 cycles
 SCF Done:  E(RB3LYP) =  -691.204615208     A.U. after   16 cycles
 SCF Done:  E(RB3LYP) =  -691.207170928     A.U. after   16 cycles
 SCF Done:  E(RB3LYP) =  -691.209203476     A.U. after   16 cycles
 SCF Done:  E(RB3LYP) =  -691.209847330     A.U. after   14 cycles
 SCF Done:  E(RB3LYP) =  -691.209857772     A.U. after   13 cycles
 SCF Done:  E(RB3LYP) =  -691.209864090     A.U. after   12 cycles
 SCF Done:  E(RB3LYP) =  -691.209865347     A.U. after   11 cycles
 SCF Done:  E(RB3LYP) =  -691.209866039     A.U. after   11 cycles
 SCF Done:  E(RB3LYP) =  -691.209866457     A.U. after   12 cycles
 SCF Done:  E(RB3LYP) =  -691.209866665     A.U. after   11 cycles
 SCF Done:  E(RB3LYP) =  -691.209866901     A.U. after   11 cycles
 SCF Done:  E(RB3LYP) =  -691.209867028     A.U. after   11 cycles
 Optimization completed.
    -- Stationary point found.
 Normal termination of Gaussian 16 at Fri Sep 15 05:30:13 2023.

 ---------------------------------------------------------------------
 #N Geom=AllCheck Guess=TCheck SCRF=Check GenChk RB3LYP/6-31+G(d) Freq
 ---------------------------------------------------------------------

 Structure from the checkpoint file:  "molecule_88.chk"
 -------------
 ML molecule88
 -------------
 Charge =  0 Multiplicity = 1

                         Standard orientation:
 ---------------------------------------------------------------------
 Center     Atomic      Atomic             Coordinates (Angstroms)
 Number     Number       Type             X           Y           Z
 ---------------------------------------------------------------------
      1          6           0       -2.654223    0.010568    0.026135
      2          6           0       -1.610614   -0.886126    0.305059
      3          6           0       -0.278875   -0.470844    0.307766
      4          6           0        0.018920    0.867381    0.025234
      5          6           0       -1.008413    1.781337   -0.252064
      6          6           0       -2.327685    1.352581   -0.249744
      7          1           0       -1.824467   -1.926689    0.529165
      8          1           0       -0.746539    2.813324   -0.464815
      9          1           0       -3.133810    2.046846   -0.465377
     10          8           0        1.291740    1.381849    0.036747
     11          6           0        2.387955    0.528078   -0.010458
     12          6           0        2.640356   -0.239122   -1.149987
     13          6           0        3.262524    0.521965    1.074563
     14          6           0        3.787557   -1.034277   -1.192533
     15          6           0        4.411683   -0.272974    1.018789
     16          1           0        3.036384    1.137116    1.940161
     17          6           0        4.674978   -1.053923   -0.110387
     18          1           0        3.991417   -1.633295   -2.076195
     19          1           0        5.099222   -0.280886    1.860412
     20          1           0        0.515975   -1.174313    0.529775
     21          1           0        1.944100   -0.206447   -1.982707
     22          1           0        5.568288   -1.671138   -0.150162
     23          6           0       -4.090406   -0.398630    0.012403
     24          8           0       -4.974438    0.413443   -0.236254
     25          6           0       -4.445048   -1.846665    0.313521
     26          1           0       -5.529466   -1.960840    0.259780
     27          1           0       -3.972691   -2.525607   -0.407244
     28          1           0       -4.099075   -2.136501    1.313470
 ---------------------------------------------------------------------

 SCF Done:  E(RB3LYP) =  -691.209867028     A.U. after    1 cycles

 The electronic state is 1-A.
 Alpha  occ. eigenvalues --  -19.21134 -19.14317 -10.28240 -10.27671 -10.26894
 Alpha  occ. eigenvalues --  -10.21804 -10.21475 -10.21424 -10.21264 -10.21124
 Alpha  occ. eigenvalues --  -10.21015 -10.20986 -10.20950 -10.20736 -10.20602
 Alpha  occ. eigenvalues --  -10.19436  -1.09954  -1.04021  -0.88090  -0.86734
 Alpha  occ. eigenvalues --   -0.79134  -0.76975  -0.76701  -0.75975  -0.73212
 Alpha  occ. eigenvalues --   -0.65952  -0.63653  -0.63018  -0.60503  -0.56452
 Alpha  occ. eigenvalues --   -0.56365  -0.51925  -0.49903  -0.48829  -0.48720
 Alpha  occ. eigenvalues --   -0.46465  -0.46330  -0.44825  -0.44443  -0.44270
 Alpha  occ. eigenvalues --   -0.43373  -0.42099  -0.41347  -0.40899  -0.38693
 Alpha  occ. eigenvalues --   -0.38163  -0.38013  -0.37447  -0.36550  -0.35265
 Alpha  occ. eigenvalues --   -0.33792  -0.27628  -0.27114  -0.26671  -0.25581
 Alpha  occ. eigenvalues --   -0.24149
 Alpha virt. eigenvalues --   -0.06242  -0.03567  -0.02508  -0.02067  -0.00511
 Alpha virt. eigenvalues --    0.00466   0.01774   0.01889   0.02725   0.02897
 Alpha virt. eigenvalues --    0.03093   0.04011   0.04393   0.04523   0.05168

 Mulliken charges:
               1
     1  C    0.845290
     2  C   -1.407130
     3  C    0.416068
     4  C   -0.263577
     5  C   -0.402830
     6  C    0.068252
     7  H    0.185586
     8  H    0.198731
     9  H    0.223802
    10  O   -0.319063
    11  C   -0.004606
    12  C   -0.006470
    13  C   -0.007335
    14  C   -0.121987
    15  C   -0.195837
    16  H    0.193825
    17  C   -0.247788
    18  H    0.185979
    19  H    0.186246
    20  H    0.203997
    21  H    0.193473
    22  H    0.182680
    23  C    0.510575
    24  O   -0.446906
    25  C   -0.865561
    26  H    0.241346
    27  H    0.226534
    28  H    0.226706
 Sum of Mulliken charges =   0.00000

 Dipole moment (field-independent basis, Debye):
    X=              3.8588    Y=             -2.6770    Z=              0.5104  Tot=              4.7241
 Quadrupole moment (field-independent basis, Debye-Ang):
   XX=           -106.1107   YY=            -89.7155   ZZ=            -91.2971
   XY=              3.6980   XZ=             -0.8809   YZ=              0.9466

  Exact polarizability: 251.636 -11.395 149.203   9.688   1.616 122.737
 Approx polarizability: 338.751 -27.644 249.860  22.935   3.807 201.398

                      1                      2                      3
                      A                      A                      A
 Frequencies --     11.7832                36.8963                58.6099
 Red. masses --      4.7568                 4.4639                 4.2341
 Frc consts  --      0.0004                 0.0036                 0.0086
 IR Inten    --      0.6125                 1.5478                 0.8212

                      4                      5                      6
                      A                      A                      A
 Frequencies --     76.4422               101.8935               178.3348
 Red. masses --      4.2865                 6.2227                 1.0364
 Frc consts  --      0.0148                 0.0381                 0.0194
 IR Inten    --      2.2373                 1.1530                 0.1431

                      7                      8                      9
                      A                      A                      A
 Frequencies --    181.0799               238.3278               271.2749
 Red. masses --      5.0922                 5.5776                 5.6334
 Frc consts  --      0.0984                 0.1867                 0.2443
 IR Inten    --      4.2784                 0.0381                 0.1957

                     10                     11                     12
                      A                      A                      A
 Frequencies --    295.2205               390.2247               409.3454
 Red. masses --      4.2735                 6.4732                 4.7234
 Frc consts  --      0.2194                 0.5808                 0.4663
 IR Inten    --      2.9368                 4.3746                 2.1728

                     13                     14                     15
                      A                      A                      A
 Frequencies --    421.9748               425.5911               456.4683
 Red. masses --      2.9798                 3.0360                 4.1082
 Frc consts  --      0.3126                 0.3240                 0.5043
 IR Inten    --      0.3340                 0.2844                 5.1970

                     16                     17                     18
                      A                      A                      A
 Frequencies --    500.7148               509.6610               585.4342
 Red. masses --      3.1295                 3.7857                 5.6307
 Frc consts  --      0.4623                 0.5794                 1.1370
 IR Inten    --      4.9824                15.3640                21.8824

                     19                     20                     21
                      A                      A                      A
 Frequencies --    599.0386               616.2068               628.2656
 Red. masses --      2.4824                 4.2174                 6.3765
 Frc consts  --      0.5248                 0.9435                 1.4829
 IR Inten    --     12.7826                 3.1404                 0.9458

                     22                     23                     24
                      A                      A                      A
 Frequencies --    650.4493               692.8363               702.9519
 Red. masses --      6.7400                 4.7465                 1.9680
 Frc consts  --      1.6801                 1.3424                 0.5730
 IR Inten    --      1.7379                 0.3684                35.9722

                     25                     26                     27
                      A                      A                      A
 Frequencies --    731.1105               774.9520               814.1554
 Red. masses --      3.7466                 2.1889                 3.6221
 Frc consts  --      1.1799                 0.7745                 1.4146
 IR Inten    --      3.6551                33.3646                17.2194

                     28                     29                     30
                      A                      A                      A
 Frequencies --    831.4184               844.8103               858.3773
 Red. masses --      1.3122                 1.2472                 1.5508
 Frc consts  --      0.5344                 0.5245                 0.6732
 IR Inten    --      7.0251                 0.2231                43.3375

                     31                     32                     33
                      A                      A                      A
 Frequencies --    889.0904               926.1585               963.3734
 Red. masses --      6.0431                 1.5040                 1.3129
 Frc consts  --      2.8145                 0.7601                 0.7179
 IR Inten    --     37.9305                 5.6279                 0.4472

                     34                     35                     36
                      A                      A                      A
 Frequencies --    967.5606               976.7479               997.4194
 Red. masses --      2.2390                 1.3546                 1.3219
 Frc consts  --      1.2350                 0.7614                 0.7748
 IR Inten    --     59.0357                 0.0741                 0.4488

                     37                     38                     39
                      A                      A                      A
 Frequencies --    998.0901              1017.2488              1029.1714
 Red. masses --      1.2726                 6.2815                 2.8557
 Frc consts  --      0.7469                 3.8297                 1.7821
 IR Inten    --      0.1246                 2.3529                 2.4855

                     40                     41                     42
                      A                      A                      A
 Frequencies --   1047.6467              1053.1117              1098.6182
 Red. masses --      2.0757                 1.8419                 2.3428
 Frc consts  --      1.3423                 1.2036                 1.6660
 IR Inten    --      9.0202                 0.8074                 3.1672

                     43                     44                     45
                      A                      A                      A
 Frequencies --   1103.3460              1154.0352              1194.7237
 Red. masses --      1.5168                 1.2911                 1.2560
 Frc consts  --      1.0879                 1.0131                 1.0563
 IR Inten    --      7.5881                12.4842                 5.7245

                     46                     47                     48
                      A                      A                      A
 Frequencies --   1196.8475              1208.9845              1230.5960
 Red. masses --      1.1355                 1.3509                 2.3641
 Frc consts  --      0.9583                 1.1633                 2.1093
 IR Inten    --      0.9427               132.3493                92.1268

                     49                     50                     51
                      A                      A                      A
 Frequencies --   1281.4748              1293.3080              1332.7917
 Red. masses --      4.8943                 3.3327                 1.9484
 Frc consts  --      4.7355                 3.2843                 2.0391
 IR Inten    --    756.7302                73.0923                 0.4914

                     52                     53                     54
                      A                      A                      A
 Frequencies --   1344.6493              1358.1019              1360.8374
 Red. masses --      1.3439                 2.6059                 8.3314
 Frc consts  --      1.4316                 2.8319                 9.0904
 IR Inten    --      2.8509                 3.4794                 2.2763

                     55                     56                     57
                      A                      A                      A
 Frequencies --   1407.6906              1460.5594              1494.1249
 Red. masses --      1.3194                 3.0326                 2.2069
 Frc consts  --      1.5404                 3.8116                 2.9028
 IR Inten    --     40.9710                47.4915                 2.0737

                     58                     59                     60
                      A                      A                      A
 Frequencies --   1496.0315              1503.8200              1531.5523
 Red. masses --      1.0668                 1.0473                 2.2460
 Frc consts  --      1.4067                 1.3954                 3.1041
 IR Inten    --     20.1111                11.9103               146.6257

                     61                     62                     63
                      A                      A                      A
 Frequencies --   1548.4709              1617.5020              1640.1322
 Red. masses --      2.4133                 6.4873                 5.4494
 Frc consts  --      3.4093                10.0000                 8.6368
 IR Inten    --     48.5851                56.6008               217.1651

                     64                     65                     66
                      A                      A                      A
 Frequencies --   1642.9942              1658.8226              1745.6716
 Red. masses --      6.0525                 5.6632                10.3845
 Frc consts  --      9.6263                 9.1814                18.6450
 IR Inten    --     33.8647                83.5794               233.0710

                     67                     68                     69
                      A                      A                      A
 Frequencies --   3046.2391              3105.0092              3160.8374
 Red. masses --      1.0383                 1.0999                 1.1011
 Frc consts  --      5.6767                 6.2480                 6.4815
 IR Inten    --      4.1689                 9.5431                14.3600

                     70                     71                     72
                      A                      A                      A
 Frequencies --   3183.6676              3192.6971              3203.3847
 Red. masses --      1.0858                 1.0893                 1.0881
 Frc consts  --      6.4842                 6.5419                 6.5786
 IR Inten    --      0.9620                 9.6310                11.0345

                     73                     74                     75
                      A                      A                      A
 Frequencies --   3204.5723              3206.9005              3212.1748
 Red. masses --      1.0924                 1.0888                 1.0947
 Frc consts  --      6.6095                 6.5975                 6.6550
 IR Inten    --     25.9611                 0.5611                 9.4206

                     76                     77                     78
                      A                      A                      A
 Frequencies --   3216.2908              3222.4873              3224.0985
 Red. masses --      1.0965                 1.0938                 1.0935
 Frc consts  --      6.6830                 6.6924                 6.6970
 IR Inten    --      3.2271                 4.9811                 3.6377

 - Thermochemistry -
 -------------------
 Temperature   298.150 Kelvin.  Pressure   1.00000 Atm.
 Atom     1 has atomic number  6 and mass  12.00000

 Molecular mass:   212.08373 amu.
 Principal axes and moments of inertia in atomic units:
                           1         2         3
     Eigenvalues --  1122.437328035.655558559.23103
           X            0.99999   0.00502  -0.00082
           Y           -0.00502   0.99998  -0.00334
           Z            0.00080   0.00334   0.99999
 This molecule is an asymmetric top.
 Rotational symmetry number  1.
 Warning -- assumption of classical behavior for rotation
           may cause significant error
 Rotational temperatures (Kelvin)      0.07717     0.01078     0.01012
 Rotational constants (GHZ):           1.60788     0.22459     0.21085
 Zero-point vibrational energy     585234.2 (Joules/Mol)
                                  139.87433 (Kcal/Mol)
 Warning -- explicit consideration of  20 degrees of freedom as
           vibrations may cause significant error
 Vibrational temperatures:     16.95    53.09    84.33   109.98   146.60
          (Kelvin)            256.58   260.53   342.90   390.30   424.76
                              561.45   588.96   607.13   612.33   656.76
                              720.42   733.29   842.31   861.88   886.58
                              903.93   935.85   996.84  1011.39  1051.90
                             1114.98  1171.39  1196.23  1215.49  1235.01
                             1279.20  1332.54  1386.08  1392.10  1405.32
                             1435.06  1436.03  1463.59  1480.75  1507.33
                             1515.19  1580.67  1587.47  1660.40  1718.94
                             1722.00  1739.46  1770.55  1843.76  1860.78
                             1917.59  1934.65  1954.01  1957.94  2025.35
                             2101.42  2149.71  2152.46  2163.66  2203.56
                             2227.90  2327.22  2359.78  2363.90  2386.68
                             2511.63  4382.86  4467.42  4547.74  4580.59
                             4593.58  4608.96  4610.66  4614.01  4621.60
                             4627.53  4636.44  4638.76

 Zero-point correction=                           0.222904 (Hartree/Particle)
 Thermal correction to Energy=                    0.236433
 Thermal correction to Enthalpy=                  0.237377
 Thermal correction to Gibbs Free Energy=         0.180077
 Sum of electronic and zero-point Energies=           -690.986963
 Sum of electronic and thermal Energies=              -690.973434
 Sum of electronic and thermal Enthalpies=            -690.972490
 Sum of electronic and thermal Free Energies=         -691.029790

                     E (Thermal)             CV                S
                      KCal/Mol        Cal/Mol-Kelvin    Cal/Mol-Kelvin
 Total                  148.364             52.334            120.599
 Electronic               0.000              0.000              0.000
 Translational            0.889              2.981             41.959
 Rotational               0.889              2.981             32.712
 Vibrational            146.587             46.372             45.928
 Vibration     1          0.593              1.987              7.685
 Vibration     2          0.594              1.982              5.419
 Vibration     3          0.596              1.974              4.503
 Vibration     4          0.599              1.965              3.980
 Vibration     5          0.604              1.948              3.418
 Vibration     6          0.629              1.869              2.346
 Vibration     7          0.630              1.865              2.317
 Vibration     8          0.656              1.782              1.815
 Vibration     9          0.675              1.726              1.588
 Vibration    10          0.689              1.683              1.444
 Vibration    11          0.758              1.491              0.999
 Vibration    12          0.774              1.450              0.929
 Vibration    13          0.784              1.422              0.885
 Vibration    14          0.787              1.415              0.873
 Vibration    15          0.815              1.347              0.776
 Vibration    16          0.856              1.248              0.656
 Vibration    17          0.865              1.229              0.634
 Vibration    18          0.942              1.063              0.475
 Vibration    19          0.957              1.034              0.451
 Vibration    20          0.976              0.998              0.423

 Optimization completed.
    -- Stationary point found.
 Normal termination of Gaussian 16 at Fri Sep 15 05:34:57 2023.
