 Gaussian 16, Revision B.01,
 Gaussian 16:  EM64L-G16RevB.01 20-Dec-2017

 ----------------------------------------------------------------------
 # opt freq b3lyp/6-31+g(d) geom=connectivity empiricaldispersion=gd3 v
 olume
 ----------------------------------------------------------------------

 --------------
 ML molecule120
 --------------
 Symbolic Z-matrix:
 Charge =  0 Multiplicity = 1

 SCF Done:  E(RB3LYP) =  -784.396302614     A.U. after   16 cycles
 SCF Done:  E(RB3LYP) =  -784.429168908     A.U. after   17 cycles
 SCF Done:  E(RB3LYP) =  -784.439188133     A.U. after   16 cycles
 SCF Done:  E(RB3LYP) =  -784.444734119     A.U. after   17 cycles
 SCF Done:  E(RB3LYP) =  -784.449236880     A.U. after   17 cycles
 SCF Done:  E(RB3LYP) =  -784.452019439     A.U. after   17 cycles
 SCF Done:  E(RB3LYP) =  -784.452455248     A.U. after   16 cycles
 SCF Done:  E(RB3LYP) =  -784.452488993     A.U. after   12 cycles
 SCF Done:  E(RB3LYP) =  -784.452499255     A.U. after   12 cycles
 SCF Done:  E(RB3LYP) =  -784.452513961     A.U. after   13 cycles
 SCF Done:  E(RB3LYP) =  -784.452729626     A.U. after   16 cycles
 SCF Done:  E(RB3LYP) =  -784.452789496     A.U. after   13 cycles
 SCF Done:  E(RB3LYP) =  -784.452887256     A.U. after   16 cycles
 SCF Done:  E(RB3LYP) =  -784.452908849     A.U. after   14 cycles
 SCF Done:  E(RB3LYP) =  -784.452910635     A.U. after   12 cycles
 SCF Done:  E(RB3LYP) =  -784.452911661     A.U. after   13 cycles
 SCF Done:  E(RB3LYP) =  -784.452912018     A.U. after   12 cycles
 SCF Done:  E(RB3LYP) =  -784.452912288     A.U. after   11 cycles
 SCF Done:  E(RB3LYP) =  -784.452912311     A.U. after   10 cycles
 Optimization completed.
    -- Stationary point found.
 Normal termination of Gaussian 16 at Fri Sep 15 13:26:56 2023.

 ---------------------------------------------------------------------
 #N Geom=AllCheck Guess=TCheck SCRF=Check GenChk RB3LYP/6-31+G(d) Freq
 ---------------------------------------------------------------------

 Structure from the checkpoint file:  "molecule_120.chk"
 --------------
 ML molecule120
 --------------
 Charge =  0 Multiplicity = 1

                         Standard orientation:
 ---------------------------------------------------------------------
 Center     Atomic      Atomic             Coordinates (Angstroms)
 Number     Number       Type             X           Y           Z
 ---------------------------------------------------------------------
      1          6           0        4.231591   -0.346744   -0.270581
      2          6           0        4.152029    0.945309    0.284756
      3          6           0        2.914563    1.524889    0.531137
      4          6           0        1.741249    0.821864    0.224046
      5          6           0        1.805303   -0.461424   -0.334921
      6          6           0        3.048636   -1.040009   -0.577896
      7          1           0        5.063177    1.485299    0.523063
      8          1           0        0.895525   -0.997535   -0.580824
      9          1           0        3.105494   -2.033379   -1.012424
     10          1           0        2.832780    2.518522    0.960051
     11          6           0       -0.874718   -0.166781    1.512373
     12          6           0       -0.632507    0.775589    0.482292
     13          6           0       -2.088396   -0.813927    1.561490
     14          6           0       -1.581560    1.068342   -0.465914
     15          6           0       -3.103879   -0.547344    0.600220
     16          1           0       -2.286586   -1.537184    2.349072
     17          6           0       -2.845287    0.416744   -0.430135
     18          1           0       -1.361727    1.801745   -1.236588
     19          6           0       -4.365741   -1.200627    0.630633
     20          6           0       -3.860263    0.687645   -1.388010
     21          6           0       -5.330221   -0.917381   -0.313312
     22          1           0       -4.559504   -1.930149    1.413938
     23          6           0       -5.074021    0.035458   -1.331674
     24          1           0       -3.663620    1.419186   -2.168459
     25          1           0       -6.291283   -1.423540   -0.279578
     26          1           0       -5.841448    0.251374   -2.070355
     27          1           0       -0.098780   -0.359632    2.247034
     28          8           0        0.566189    1.483366    0.470021
     29          6           0        5.507299   -0.948440   -0.520960
     30          7           0        6.544571   -1.437229   -0.723766
 ---------------------------------------------------------------------

 SCF Done:  E(RB3LYP) =  -784.452912311     A.U. after    1 cycles

 The electronic state is 1-A.
 Alpha  occ. eigenvalues --  -19.21901 -14.34334 -10.28714 -10.27345 -10.24493
 Alpha  occ. eigenvalues --  -10.23598 -10.23181 -10.23095 -10.22415 -10.22153
 Alpha  occ. eigenvalues --  -10.22142 -10.21971 -10.21930 -10.21789 -10.21454
 Alpha  occ. eigenvalues --  -10.21258 -10.21245 -10.21170 -10.21116  -1.10751
 Alpha  occ. eigenvalues --   -0.91411  -0.89729  -0.88517  -0.84374  -0.80127
 Alpha  occ. eigenvalues --   -0.78945  -0.78357  -0.75909  -0.74193  -0.67702
 Alpha  occ. eigenvalues --   -0.65276  -0.64643  -0.62174  -0.61918  -0.57674
 Alpha  occ. eigenvalues --   -0.56873  -0.53671  -0.52824  -0.51360  -0.48949
 Alpha  occ. eigenvalues --   -0.47535  -0.47232  -0.46222  -0.45598  -0.44783
 Alpha  occ. eigenvalues --   -0.43877  -0.42999  -0.42548  -0.42279  -0.40775
 Alpha  occ. eigenvalues --   -0.40302  -0.38623  -0.37867  -0.36683  -0.36542
 Alpha  occ. eigenvalues --   -0.35596  -0.34334  -0.33696  -0.33141  -0.30642
 Alpha  occ. eigenvalues --   -0.28706  -0.26675  -0.24940  -0.23701
 Alpha virt. eigenvalues --   -0.06537  -0.05347  -0.04134  -0.03281  -0.00756
 Alpha virt. eigenvalues --   -0.00453   0.00199   0.00587   0.01441   0.01763
 Alpha virt. eigenvalues --    0.02344   0.02565   0.03152   0.03369   0.04209

 Mulliken charges:
               1
     1  C    0.569982
     2  C   -0.362834
     3  C   -0.068835
     4  C   -0.294319
     5  C    0.694731
     6  C   -0.715458
     7  H    0.208590
     8  H    0.215405
     9  H    0.208044
    10  H    0.203324
    11  C   -0.164120
    12  C   -0.253273
    13  C   -0.061691
    14  C    0.274827
    15  C    0.165329
    16  H    0.191037
    17  C    0.065019
    18  H    0.195493
    19  C   -0.098310
    20  C   -0.130301
    21  C   -0.346412
    22  H    0.186690
    23  C   -0.366802
    24  H    0.186952
    25  H    0.184492
    26  H    0.184635
    27  H    0.195718
    28  O   -0.315999
    29  C   -0.214206
    30  N   -0.537710
 Sum of Mulliken charges =   0.00000

 Dipole moment (field-independent basis, Debye):
    X=             -5.8186    Y=              0.9287    Z=              0.7490  Tot=              5.9397
 Quadrupole moment (field-independent basis, Debye-Ang):
   XX=           -140.6299   YY=           -109.1109   ZZ=           -107.2328
   XY=             17.6666   XZ=              9.3791   YZ=             -4.6577

  Exact polarizability: 343.847   4.226 164.314  17.423  -6.632 151.700
 Approx polarizability: 475.183  10.642 287.625  35.821 -14.811 257.335

                      1                      2                      3
                      A                      A                      A
 Frequencies --     14.2007                36.3997                53.8447
 Red. masses --      6.0166                 5.1052                 4.3509
 Frc consts  --      0.0007                 0.0040                 0.0074
 IR Inten    --      0.3455                 0.5639                 0.3173

                      4                      5                      6
                      A                      A                      A
 Frequencies --     96.8595               122.9687               159.1508
 Red. masses --      8.2926                 6.9952                 7.1807
 Frc consts  --      0.0458                 0.0623                 0.1072
 IR Inten    --      4.1169                 3.5156                 2.8800

                      7                      8                      9
                      A                      A                      A
 Frequencies --    187.3606               235.0734               262.4425
 Red. masses --      3.6790                 6.6339                 6.8107
 Frc consts  --      0.0761                 0.2160                 0.2764
 IR Inten    --      1.3761                 1.1786                 1.5652

                     10                     11                     12
                      A                      A                      A
 Frequencies --    302.2205               317.2439               405.6383
 Red. masses --      4.9512                 6.3073                 3.3958
 Frc consts  --      0.2664                 0.3740                 0.3292
 IR Inten    --      0.5190                 1.5138                 0.1847

                     13                     14                     15
                      A                      A                      A
 Frequencies --    420.4396               443.0456               450.0028
 Red. masses --      3.0756                 5.1416                 7.2269
 Frc consts  --      0.3203                 0.5946                 0.8622
 IR Inten    --      0.3738                 2.2707                 1.5958

                     16                     17                     18
                      A                      A                      A
 Frequencies --    475.6659               486.6599               511.2784
 Red. masses --      5.2056                 2.6644                 4.9485
 Frc consts  --      0.6939                 0.3718                 0.7621
 IR Inten    --      1.1682                21.1841                 1.0843

                     19                     20                     21
                      A                      A                      A
 Frequencies --    531.3094               555.6867               559.8656
 Red. masses --      5.8873                 6.8671                 3.3803
 Frc consts  --      0.9792                 1.2493                 0.6243
 IR Inten    --      0.7835                 0.2108                18.6447

                     22                     23                     24
                      A                      A                      A
 Frequencies --    577.2824               626.9640               654.2872
 Red. masses --      4.6565                 5.8830                 6.2788
 Frc consts  --      0.9143                 1.3625                 1.5837
 IR Inten    --      1.2744                 3.6299                 1.3560

                     25                     26                     27
                      A                      A                      A
 Frequencies --    658.1780               708.9888               724.9614
 Red. masses --      4.3776                 3.5562                 3.6222
 Frc consts  --      1.1173                 1.0532                 1.1216
 IR Inten    --      4.7916                 4.0934                 6.8233

                     28                     29                     30
                      A                      A                      A
 Frequencies --    755.6767               766.5531               772.7721
 Red. masses --      4.2429                 1.8521                 2.5467
 Frc consts  --      1.4275                 0.6412                 0.8961
 IR Inten    --      4.1384                25.8256                 9.9776

                     31                     32                     33
                      A                      A                      A
 Frequencies --    781.2910               827.3689               834.0358
 Red. masses --      4.8185                 1.4569                 1.2541
 Frc consts  --      1.7330                 0.5876                 0.5140
 IR Inten    --      1.1312                27.3015                 0.8906

                     34                     35                     36
                      A                      A                      A
 Frequencies --    845.6023               852.7619               879.7782
 Red. masses --      3.7798                 1.7411                 1.6579
 Frc consts  --      1.5924                 0.7460                 0.7560
 IR Inten    --      7.4299                49.2851                18.8771

                     37                     38                     39
                      A                      A                      A
 Frequencies --    909.0761               924.3953               963.0038
 Red. masses --      1.6340                 5.0608                 1.3228
 Frc consts  --      0.7956                 2.5479                 0.7228
 IR Inten    --     19.7556                16.2057                 1.3271

                     40                     41                     42
                      A                      A                      A
 Frequencies --    966.7656               976.7797               977.6838
 Red. masses --      1.3081                 1.3469                 1.3509
 Frc consts  --      0.7203                 0.7571                 0.7608
 IR Inten    --      0.6664                 0.8479                 2.2605

                     43                     44                     45
                      A                      A                      A
 Frequencies --    984.9261               998.3922              1031.7522
 Red. masses --      3.9544                 1.3013                 2.7118
 Frc consts  --      2.2601                 0.7642                 1.7008
 IR Inten    --     51.0861                 0.0107                 3.4395

                     46                     47                     48
                      A                      A                      A
 Frequencies --   1050.5916              1149.3281              1150.4315
 Red. masses --      2.3354                 1.4052                 1.6809
 Frc consts  --      1.5188                 1.0936                 1.3107
 IR Inten    --      1.1546                 6.3339                 7.9143

                     49                     50                     51
                      A                      A                      A
 Frequencies --   1180.9267              1186.9777              1196.5612
 Red. masses --      1.2900                 1.5405                 1.2905
 Frc consts  --      1.0599                 1.2788                 1.0886
 IR Inten    --      1.2607                21.6403                 3.2541

                     52                     53                     54
                      A                      A                      A
 Frequencies --   1207.8480              1228.1968              1242.3898
 Red. masses --      1.3026                 3.0764                 2.6697
 Frc consts  --      1.1196                 2.7342                 2.4278
 IR Inten    --    109.3117                 1.7464                 4.3662

                     55                     56                     57
                      A                      A                      A
 Frequencies --   1272.4209              1286.7541              1298.7047
 Red. masses --      1.9145                 3.2021                 1.8183
 Frc consts  --      1.8263                 3.1237                 1.8069
 IR Inten    --     94.3603               554.2230                 8.9889

                     58                     59                     60
                      A                      A                      A
 Frequencies --   1338.2654              1342.1782              1393.1283
 Red. masses --      3.0335                 1.8299                 1.9138
 Frc consts  --      3.2010                 1.9422                 2.1884
 IR Inten    --     21.1753                 1.3791                10.2577

                     61                     62                     63
                      A                      A                      A
 Frequencies --   1407.2254              1419.9249              1459.1682
 Red. masses --      5.6050                 4.5551                 3.0404
 Frc consts  --      6.5396                 5.4110                 3.8141
 IR Inten    --      6.3182                19.1134                 5.9803

                     64                     65                     66
                      A                      A                      A
 Frequencies --   1481.9108              1510.7862              1544.8847
 Red. masses --      2.4260                 2.1942                 2.4323
 Frc consts  --      3.1389                 2.9507                 3.4203
 IR Inten    --      2.1037                79.6275               208.9612

                     67                     68                     69
                      A                      A                      A
 Frequencies --   1556.0731              1612.3917              1622.9937
 Red. masses --      3.2976                 6.7290                 6.9130
 Frc consts  --      4.7044                10.3072                10.7288
 IR Inten    --     19.7146                 5.5952                 3.2142

                     70                     71                     72
                      A                      A                      A
 Frequencies --   1648.1540              1659.5455              1682.9970
 Red. masses --      5.3867                 5.4472                 6.2361
 Frc consts  --      8.6213                 8.8389                10.4072
 IR Inten    --    203.8242                57.9840                18.3179

                     73                     74                     75
                      A                      A                      A
 Frequencies --   2330.7713              3175.5309              3180.0097
 Red. masses --     12.6785                 1.0864                 1.0886
 Frc consts  --     40.5805                 6.4547                 6.4861
 IR Inten    --     92.8631                 3.0938                 0.8342

                     76                     77                     78
                      A                      A                      A
 Frequencies --   3184.0632              3194.2157              3202.7958
 Red. masses --      1.0887                 1.0933                 1.0917
 Frc consts  --      6.5029                 6.5725                 6.5978
 IR Inten    --      8.1063                26.9846                 8.5860

                     79                     80                     81
                      A                      A                      A
 Frequencies --   3207.2350              3207.3251              3208.6131
 Red. masses --      1.0948                 1.0911                 1.0897
 Frc consts  --      6.6349                 6.6133                 6.6099
 IR Inten    --     30.0521                 2.5409                 1.5405

                     82                     83                     84
                      A                      A                      A
 Frequencies --   3211.5201              3222.6448              3228.1427
 Red. masses --      1.0943                 1.0954                 1.0937
 Frc consts  --      6.6500                 6.7027                 6.7150
 IR Inten    --      5.1746                 3.0134                 1.8833

 - Thermochemistry -
 -------------------
 Temperature   298.150 Kelvin.  Pressure   1.00000 Atm.
 Atom     1 has atomic number  6 and mass  12.00000

 Molecular mass:   245.08406 amu.
 Principal axes and moments of inertia in atomic units:
                           1         2         3
     Eigenvalues --  1443.04916********************
           X            0.99997   0.00699   0.00362
           Y           -0.00659   0.99476  -0.10202
           Z           -0.00431   0.10200   0.99478
 This molecule is an asymmetric top.
 Rotational symmetry number  1.
 Warning -- assumption of classical behavior for rotation
           may cause significant error
 Rotational temperatures (Kelvin)      0.06002     0.00719     0.00705
 Rotational constants (GHZ):           1.25064     0.14972     0.14689
 Zero-point vibrational energy     605969.9 (Joules/Mol)
                                  144.83029 (Kcal/Mol)
 Warning -- explicit consideration of  22 degrees of freedom as
           vibrations may cause significant error
 Vibrational temperatures:     20.43    52.37    77.47   139.36   176.92
          (Kelvin)            228.98   269.57   338.22   377.60   434.83
                              456.44   583.62   604.92   637.44   647.45
                              684.38   700.20   735.62   764.44   799.51
                              805.52   830.58   902.06   941.37   946.97
                             1020.08  1043.06  1087.25  1102.90  1111.85
                             1124.10  1190.40  1199.99  1216.63  1226.93
                             1265.80  1307.96  1330.00  1385.55  1390.96
                             1405.37  1406.67  1417.09  1436.46  1484.46
                             1511.57  1653.63  1655.21  1699.09  1707.80
                             1721.58  1737.82  1767.10  1787.52  1830.73
                             1851.35  1868.55  1925.47  1931.10  2004.40
                             2024.68  2042.96  2099.42  2132.14  2173.68
                             2222.74  2238.84  2319.87  2335.13  2371.33
                             2387.72  2421.46  3353.46  4568.88  4575.32
                             4581.16  4595.76  4608.11  4614.50  4614.63
                             4616.48  4620.66  4636.67  4644.58

 Zero-point correction=                           0.230802 (Hartree/Particle)
 Thermal correction to Energy=                    0.245195
 Thermal correction to Enthalpy=                  0.246139
 Thermal correction to Gibbs Free Energy=         0.187262
 Sum of electronic and zero-point Energies=           -784.222111
 Sum of electronic and thermal Energies=              -784.207717
 Sum of electronic and thermal Enthalpies=            -784.206773
 Sum of electronic and thermal Free Energies=         -784.265650

                     E (Thermal)             CV                S
                      KCal/Mol        Cal/Mol-Kelvin    Cal/Mol-Kelvin
 Total                  153.862             57.751            123.917
 Electronic               0.000              0.000              0.000
 Translational            0.889              2.981             42.390
 Rotational               0.889              2.981             33.724
 Vibrational            152.085             51.789             47.803
 Vibration     1          0.593              1.986              7.314
 Vibration     2          0.594              1.982              5.446
 Vibration     3          0.596              1.976              4.671
 Vibration     4          0.603              1.951              3.517
 Vibration     5          0.610              1.930              3.053
 Vibration     6          0.621              1.892              2.560
 Vibration     7          0.632              1.857              2.254
 Vibration     8          0.655              1.787              1.840
 Vibration     9          0.670              1.742              1.645
 Vibration    10          0.694              1.669              1.405
 Vibration    11          0.704              1.641              1.324
 Vibration    12          0.771              1.458              0.942
 Vibration    13          0.783              1.426              0.890
 Vibration    14          0.803              1.376              0.817
 Vibration    15          0.809              1.361              0.796
 Vibration    16          0.832              1.304              0.722
 Vibration    17          0.843              1.280              0.692
 Vibration    18          0.866              1.225              0.631
 Vibration    19          0.886              1.181              0.584
 Vibration    20          0.911              1.127              0.533
 Vibration    21          0.915              1.118              0.524
 Vibration    22          0.934              1.080              0.490

 Optimization completed.
    -- Stationary point found.
 Normal termination of Gaussian 16 at Fri Sep 15 13:34:14 2023.
