 Gaussian 16, Revision B.01,
 Gaussian 16:  EM64L-G16RevB.01 20-Dec-2017

 ----------------------------------------------------------------------
 # opt=cartesian freq b3lyp/6-31+g(d) nosymm empiricaldispersion=gd3 vo
 lume
 ----------------------------------------------------------------------

 -------------------
 Title Card Required
 -------------------
 Symbolic Z-matrix:
 Charge =  0 Multiplicity = 1

 SCF Done:  E(RB3LYP) =  -620.491621838     A.U. after   15 cycles
 SCF Done:  E(RB3LYP) =  -620.491620987     A.U. after   12 cycles
 SCF Done:  E(RB3LYP) =  -620.491621819     A.U. after    9 cycles
 SCF Done:  E(RB3LYP) =  -620.491621842     A.U. after   10 cycles
 Optimization completed.
    -- Stationary point found.
 Normal termination of Gaussian 16 at Fri Sep 22 18:29:00 2023.

 ---------------------------------------------------------------------
 #N Geom=AllCheck Guess=TCheck SCRF=Check GenChk RB3LYP/6-31+G(d) Freq
 ---------------------------------------------------------------------

 Structure from the checkpoint file:  "molecule_53.chk"
 -------------------
 Title Card Required
 -------------------
 Charge =  0 Multiplicity = 1

                          Input orientation:
 ---------------------------------------------------------------------
 Center     Atomic      Atomic             Coordinates (Angstroms)
 Number     Number       Type             X           Y           Z
 ---------------------------------------------------------------------
      1          6           0       -1.007449   -0.555232   -0.307825
      2          6           0        0.201712   -0.411885   -0.251706
      3          6           0        1.556215   -0.252370   -0.195445
      4          6           0        2.768123   -0.110485   -0.146076
      5          6           0        4.181053    0.055469   -0.088407
      6          6           0        4.775376    1.277095   -0.470125
      7          6           0        5.009219   -0.999211    0.350983
      8          6           0        6.159214    1.434585   -0.412206
      9          1           0        4.141500    2.091255   -0.809063
     10          6           0        6.392064   -0.831976    0.405253
     11          1           0        4.555754   -1.941084    0.645575
     12          6           0        6.972231    0.383061    0.024788
     13          1           0        6.604899    2.380534   -0.709004
     14          1           0        7.019188   -1.652065    0.745419
     15          1           0        8.050806    0.509624    0.068478
     16          6           0       -2.458381   -0.714230   -0.338086
     17          6           0       -3.140683   -0.271105    0.978314
     18          1           0       -2.704734   -1.768188   -0.536485
     19          1           0       -2.862537   -0.140594   -1.182717
     20          6           0       -4.656624   -0.519930    0.992241
     21          1           0       -2.672894   -0.812122    1.810206
     22          1           0       -2.935343    0.795103    1.142757
     23          1           0       -5.034025   -0.286098    1.998062
     24          1           0       -4.852183   -1.591847    0.835314
     25          6           0       -5.451572    0.297932   -0.035430
     26          6           0       -6.969308    0.108365    0.088465
     27          1           0       -5.144613    0.025893   -1.055564
     28          1           0       -5.207825    1.365005    0.084230
     29          6           0       -7.760297    0.919737   -0.944213
     30          1           0       -7.209708   -0.959483   -0.019755
     31          1           0       -7.287231    0.392616    1.102200
     32          1           0       -8.840660    0.768366   -0.832329
     33          1           0       -7.560131    1.993908   -0.838653
     34          1           0       -7.486223    0.630703   -1.967173
 ---------------------------------------------------------------------

 SCF Done:  E(RB3LYP) =  -620.491621842     A.U. after    1 cycles

 Alpha  occ. eigenvalues --  -10.22673 -10.21888 -10.20880 -10.20667 -10.20666
 Alpha  occ. eigenvalues --  -10.20620 -10.20545 -10.20457 -10.20441 -10.20376
 Alpha  occ. eigenvalues --  -10.20308 -10.19715 -10.19107 -10.18822 -10.18799
 Alpha  occ. eigenvalues --  -10.18031  -0.87092  -0.82630  -0.80335  -0.79149
 Alpha  occ. eigenvalues --   -0.76835  -0.75841  -0.74009  -0.70978  -0.66704
 Alpha  occ. eigenvalues --   -0.63664  -0.61726  -0.60126  -0.58876  -0.57861
 Alpha  occ. eigenvalues --   -0.54077  -0.49338  -0.48836  -0.47796  -0.46612
 Alpha  occ. eigenvalues --   -0.46469  -0.44451  -0.43336  -0.43146  -0.42584
 Alpha  occ. eigenvalues --   -0.40824  -0.39172  -0.38884  -0.38279  -0.36917
 Alpha  occ. eigenvalues --   -0.36156  -0.35993  -0.34899  -0.34077  -0.33570
 Alpha  occ. eigenvalues --   -0.33220  -0.32967  -0.32285  -0.28606  -0.26493
 Alpha  occ. eigenvalues --   -0.24204  -0.22271
 Alpha virt. eigenvalues --   -0.05426  -0.01994  -0.01500   0.00376   0.00624
 Alpha virt. eigenvalues --    0.01435   0.01694   0.02344   0.02391   0.02532
 Alpha virt. eigenvalues --    0.03054   0.04011   0.04466   0.04952   0.05146

 Mulliken charges:
               1
     1  C   -0.213288
     2  C    0.745819
     3  C    1.387564
     4  C   -1.373146
     5  C    0.539708
     6  C   -0.508446
     7  C   -0.495413
     8  C    0.043293
     9  H    0.195983
    10  C    0.041162
    11  H    0.196195
    12  C   -0.188896
    13  H    0.183188
    14  H    0.183168
    15  H    0.181638
    16  C   -1.429336
    17  C   -0.413072
    18  H    0.231027
    19  H    0.231227
    20  C   -0.387690
    21  H    0.211518
    22  H    0.212251
    23  H    0.199676
    24  H    0.198445
    25  C   -0.238904
    26  C   -0.239447
    27  H    0.190272
    28  H    0.192601
    29  C   -0.862441
    30  H    0.193188
    31  H    0.192695
    32  H    0.197964
    33  H    0.201260
    34  H    0.200236
 Sum of Mulliken charges =   0.00000

 Dipole moment (field-independent basis, Debye):
    X=             -0.7371    Y=              0.0296    Z=              0.2387  Tot=              0.7754
 Quadrupole moment (field-independent basis, Debye-Ang):
   XX=            -76.0962   YY=            -94.3183   ZZ=           -101.4445
   XY=              2.2001   XZ=              0.3786   YZ=             -2.2965

  Exact polarizability: 385.980  17.053 152.458   6.934 -12.883 124.914
 Approx polarizability: 524.235  34.960 237.378  14.585 -20.896 179.391

                      1                      2                      3
                      A                      A                      A
 Frequencies --      2.9199                16.9924                27.7233
 Red. masses --      3.1070                 4.6354                 4.0737
 Frc consts  --      0.0000                 0.0008                 0.0018
 IR Inten    --      0.0107                 0.1326                 0.6524

                      4                      5                      6
                      A                      A                      A
 Frequencies --     55.5164                68.2680                73.6267
 Red. masses --      3.8358                 1.8737                 3.2681
 Frc consts  --      0.0070                 0.0051                 0.0104
 IR Inten    --      0.9539                 0.3135                 0.5415

                      7                      8                      9
                      A                      A                      A
 Frequencies --     99.1186               127.2679               161.4687
 Red. masses --      4.0864                 2.5116                 3.4101
 Frc consts  --      0.0237                 0.0240                 0.0524
 IR Inten    --      0.0446                 0.0183                 1.5389

                     10                     11                     12
                      A                      A                      A
 Frequencies --    194.2852               209.5461               239.2476
 Red. masses --      5.4925                 2.7492                 1.7790
 Frc consts  --      0.1222                 0.0711                 0.0600
 IR Inten    --      0.1041                 0.1617                 0.0267

                     13                     14                     15
                      A                      A                      A
 Frequencies --    260.8686               326.6856               342.9032
 Red. masses --      1.3691                 4.7291                 4.1742
 Frc consts  --      0.0549                 0.2974                 0.2892
 IR Inten    --      0.0046                 1.6403                 1.3399

                     16                     17                     18
                      A                      A                      A
 Frequencies --    369.3981               409.7020               412.0141
 Red. masses --      5.4556                 2.9601                 2.9162
 Frc consts  --      0.4386                 0.2927                 0.2917
 IR Inten    --      0.6528                 0.3481                 0.0005

                     19                     20                     21
                      A                      A                      A
 Frequencies --    444.7830               495.1555               515.2267
 Red. masses --      3.4897                 7.5305                 4.0609
 Frc consts  --      0.4068                 1.0878                 0.6351
 IR Inten    --      4.5847                 1.5672                 5.4720

                     22                     23                     24
                      A                      A                      A
 Frequencies --    568.6848               631.0255               676.4270
 Red. masses --      4.6710                 6.6554                10.2830
 Frc consts  --      0.8900                 1.5614                 2.7721
 IR Inten    --      3.7318                 0.0163                 0.1375

                     25                     26                     27
                      A                      A                      A
 Frequencies --    678.6408               700.9470               744.1281
 Red. masses --      4.9125                 1.9268                 1.1523
 Frc consts  --      1.3330                 0.5578                 0.3759
 IR Inten    --      8.7657                37.4490                 3.6306

                     28                     29                     30
                      A                      A                      A
 Frequencies --    759.9185               766.7936               804.8878
 Red. masses --      1.8365                 1.2019                 1.2792
 Frc consts  --      0.6248                 0.4164                 0.4883
 IR Inten    --     43.7026                 1.5736                 0.5510

                     31                     32                     33
                      A                      A                      A
 Frequencies --    852.9989               853.4575               869.0393
 Red. masses --      3.8839                 1.2474                 5.4884
 Frc consts  --      1.6650                 0.5353                 2.4422
 IR Inten    --      0.1798                 0.0001                 2.0154

                     34                     35                     36
                      A                      A                      A
 Frequencies --    899.3893               908.6311               935.1988
 Red. masses --      1.8275                 1.8580                 1.5451
 Frc consts  --      0.8710                 0.9038                 0.7962
 IR Inten    --      0.3770                 1.8659                 3.4814

                     37                     38                     39
                      A                      A                      A
 Frequencies --    944.3858               979.9112              1002.0521
 Red. masses --      2.0700                 1.3643                 1.2838
 Frc consts  --      1.0877                 0.7719                 0.7595
 IR Inten    --      2.5559                 0.0000                 0.0253

                     40                     41                     42
                      A                      A                      A
 Frequencies --   1004.9020              1012.5589              1043.1788
 Red. masses --      1.5665                 6.1676                 2.1777
 Frc consts  --      0.9320                 3.7257                 1.3963
 IR Inten    --      3.6527                 0.1590                 4.5061

                     43                     44                     45
                      A                      A                      A
 Frequencies --   1051.3881              1065.0867              1085.7174
 Red. masses --      2.3491                 2.7009                 2.3882
 Frc consts  --      1.5300                 1.8052                 1.6587
 IR Inten    --      5.2781                 4.4728                 0.6301

                     46                     47                     48
                      A                      A                      A
 Frequencies --   1109.1396              1131.1918              1137.9770
 Red. masses --      1.6277                 3.1629                 2.1200
 Frc consts  --      1.1798                 2.3845                 1.6175
 IR Inten    --      4.8937                 0.0856                 0.2659

                     49                     50                     51
                      A                      A                      A
 Frequencies --   1146.9837              1200.1671              1216.7875
 Red. masses --      1.5292                 1.1083                 1.1451
 Frc consts  --      1.1853                 0.9406                 0.9989
 IR Inten    --      0.9081                 0.0081                 0.3464

                     52                     53                     54
                      A                      A                      A
 Frequencies --   1225.0744              1264.3336              1302.3054
 Red. masses --      1.4420                 1.3168                 1.2709
 Frc consts  --      1.2751                 1.2402                 1.2700
 IR Inten    --      3.6396                 1.2118                 0.5458

                     55                     56                     57
                      A                      A                      A
 Frequencies --   1309.1949              1324.7286              1335.0374
 Red. masses --      1.3653                 3.3585                 1.2127
 Frc consts  --      1.3787                 3.4725                 1.2735
 IR Inten    --     20.7777                 0.1012                 4.9669

                     58                     59                     60
                      A                      A                      A
 Frequencies --   1344.9081              1353.3164              1362.1817
 Red. masses --      1.2349                 1.2703                 1.9638
 Frc consts  --      1.3161                 1.3708                 2.1469
 IR Inten    --      1.0269                 1.5370                 4.5043

                     61                     62                     63
                      A                      A                      A
 Frequencies --   1363.9646              1392.6309              1404.0762
 Red. masses --      1.6805                 1.3690                 1.4835
 Frc consts  --      1.8420                 1.5643                 1.7232
 IR Inten    --      0.3911                 1.2169                 1.8943

                     64                     65                     66
                      A                      A                      A
 Frequencies --   1424.7730              1436.9911              1480.9197
 Red. masses --      1.5532                 1.2385                 2.1844
 Frc consts  --      1.8577                 1.5068                 2.8226
 IR Inten    --     11.4390                 3.0302                 4.0384

                     67                     68                     69
                      A                      A                      A
 Frequencies --   1493.6359              1508.7815              1512.3983
 Red. masses --      1.0846                 1.0774                 1.0669
 Frc consts  --      1.4257                 1.4450                 1.4378
 IR Inten    --      9.2700                 2.6488                 0.4720

                     70                     71                     72
                      A                      A                      A
 Frequencies --   1517.8993              1521.3912              1523.4012
 Red. masses --      1.0894                 1.0690                 1.0403
 Frc consts  --      1.4788                 1.4578                 1.4225
 IR Inten    --      4.9166                 0.8500                 8.1288

                     73                     74                     75
                      A                      A                      A
 Frequencies --   1531.5729              1535.2273              1615.8470
 Red. masses --      1.0881                 2.2884                 4.9291
 Frc consts  --      1.5039                 3.1777                 7.5827
 IR Inten    --      7.1330                17.9773                 1.1450

                     76                     77                     78
                      A                      A                      A
 Frequencies --   1647.8470              2245.6798              2340.5356
 Red. masses --      5.3008                11.9511                11.9449
 Frc consts  --      8.4806                35.5102                38.5534
 IR Inten    --     12.0486                 0.7984                16.5602

                     79                     80                     81
                      A                      A                      A
 Frequencies --   3007.7334              3012.0465              3016.2301
 Red. masses --      1.0609                 1.0599                 1.0640
 Frc consts  --      5.6545                 5.6656                 5.7034
 IR Inten    --      1.1087                10.5839                27.2925

                     82                     83                     84
                      A                      A                      A
 Frequencies --   3021.0130              3030.4065              3032.2291
 Red. masses --      1.0609                 1.0920                 1.0387
 Frc consts  --      5.7044                 5.9082                 5.6268
 IR Inten    --     96.5479                 1.8634                43.1151

                     85                     86                     87
                      A                      A                      A
 Frequencies --   3038.4067              3048.7003              3053.8825
 Red. masses --      1.0797                 1.0885                 1.0937
 Frc consts  --      5.8728                 5.9611                 6.0097
 IR Inten    --     10.7268                 5.5867                 9.1768

                     88                     89                     90
                      A                      A                      A
 Frequencies --   3067.2254              3086.8692              3095.4223
 Red. masses --      1.1016                 1.1045                 1.1027
 Frc consts  --      6.1060                 6.2007                 6.2249
 IR Inten    --     78.6306                46.0929                77.7261

                     91                     92                     93
                      A                      A                      A
 Frequencies --   3100.6471              3179.6221              3188.4081
 Red. masses --      1.1014                 1.0856                 1.0887
 Frc consts  --      6.2386                 6.4666                 6.5211
 IR Inten    --     53.7693                 1.7871                 6.7966

                     94                     95                     96
                      A                      A                      A
 Frequencies --   3200.2477              3208.0906              3212.2510
 Red. masses --      1.0922                 1.0941                 1.0973
 Frc consts  --      6.5906                 6.6346                 6.6709
 IR Inten    --     22.6872                22.8049                12.0221

 - Thermochemistry -
 -------------------
 Temperature   298.150 Kelvin.  Pressure   1.00000 Atm.
 Atom     1 has atomic number  6 and mass  12.00000

 Molecular mass:   210.14085 amu.
 Principal axes and moments of inertia in atomic units:
                           1         2         3
     Eigenvalues --   691.32963********************
           X            0.99999  -0.00484  -0.00192
           Y            0.00517   0.87905   0.47670
           Z           -0.00062  -0.47671   0.87906
 This molecule is an asymmetric top.
 Rotational symmetry number  1.
 Warning -- assumption of classical behavior for rotation
           may cause significant error
 Rotational temperatures (Kelvin)      0.12529     0.00464     0.00455
 Rotational constants (GHZ):           2.61054     0.09670     0.09473
 Zero-point vibrational energy     768914.1 (Joules/Mol)
                                  183.77488 (Kcal/Mol)
 Warning -- explicit consideration of  22 degrees of freedom as
           vibrations may cause significant error
 Vibrational temperatures:      4.20    24.45    39.89    79.88    98.22
          (Kelvin)            105.93   142.61   183.11   232.32   279.53
                              301.49   344.22   375.33   470.03   493.36
                              531.48   589.47   592.80   639.94   712.42
                              741.30   818.21   907.90   973.23   976.41
                             1008.51  1070.63  1093.35  1103.24  1158.05
                             1227.28  1227.94  1250.35  1294.02  1307.32
                             1345.54  1358.76  1409.87  1441.73  1445.83
                             1456.85  1500.90  1512.71  1532.42  1562.11
                             1595.80  1627.53  1637.30  1650.25  1726.77
                             1750.69  1762.61  1819.09  1873.73  1883.64
                             1905.99  1920.82  1935.02  1947.12  1959.88
                             1962.44  2003.69  2020.15  2049.93  2067.51
                             2130.71  2149.01  2170.80  2176.00  2183.92
                             2188.94  2191.83  2203.59  2208.85  2324.84
                             2370.88  3231.03  3367.51  4327.46  4333.66
                             4339.68  4346.56  4360.08  4362.70  4371.59
                             4386.40  4393.86  4413.05  4441.32  4453.62
                             4461.14  4574.77  4587.41  4604.44  4615.73
                             4621.71

 Zero-point correction=                           0.292864 (Hartree/Particle)
 Thermal correction to Energy=                    0.309351
 Thermal correction to Enthalpy=                  0.310295
 Thermal correction to Gibbs Free Energy=         0.243068
 Sum of electronic and zero-point Energies=           -620.198758
 Sum of electronic and thermal Energies=              -620.182271
 Sum of electronic and thermal Enthalpies=            -620.181326
 Sum of electronic and thermal Free Energies=         -620.248554

                     E (Thermal)             CV                S
                      KCal/Mol        Cal/Mol-Kelvin    Cal/Mol-Kelvin
 Total                  194.121             60.045            141.492
 Electronic               0.000              0.000              0.000
 Translational            0.889              2.981             41.932
 Rotational               0.889              2.981             33.863
 Vibrational            192.343             54.083             65.698
 Vibration     1          0.592              1.987             10.457
 Vibration     2          0.593              1.986              6.958
 Vibration     3          0.593              1.984              5.986
 Vibration     4          0.596              1.975              4.611
 Vibration     5          0.598              1.969              4.203
 Vibration     6          0.599              1.966              4.054
 Vibration     7          0.604              1.950              3.472
 Vibration     8          0.611              1.926              2.987
 Vibration     9          0.622              1.890              2.533
 Vibration    10          0.635              1.848              2.187
 Vibration    11          0.642              1.826              2.048
 Vibration    12          0.657              1.780              1.808
 Vibration    13          0.669              1.744              1.656
 Vibration    14          0.710              1.622              1.276
 Vibration    15          0.722              1.590              1.199
 Vibration    16          0.742              1.535              1.082
 Vibration    17          0.774              1.449              0.928
 Vibration    18          0.776              1.444              0.920
 Vibration    19          0.804              1.372              0.812
 Vibration    20          0.851              1.261              0.670
 Vibration    21          0.870              1.216              0.621
 Vibration    22          0.925              1.099              0.507

 Normal termination of Gaussian 16 at Fri Sep 22 18:34:38 2023.
