 Gaussian 16, Revision B.01,
 Gaussian 16:  EM64L-G16RevB.01 20-Dec-2017

 ----------------------------------------------------------------------
 # opt freq b3lyp/6-31+g(d) geom=connectivity empiricaldispersion=gd3 v
 olume
 ----------------------------------------------------------------------

 -------------------
 Title Card Required
 -------------------
 Symbolic Z-matrix:
 Charge =  0 Multiplicity = 1

 SCF Done:  E(RB3LYP) =  -671.014851766     A.U. after   15 cycles
 SCF Done:  E(RB3LYP) =  -671.014851717     A.U. after   11 cycles
 SCF Done:  E(RB3LYP) =  -671.014851847     A.U. after   10 cycles
 Optimization completed.
    -- Stationary point found.
 Normal termination of Gaussian 16 at Mon Sep 18 06:34:53 2023.

 ---------------------------------------------------------------------
 #N Geom=AllCheck Guess=TCheck SCRF=Check GenChk RB3LYP/6-31+G(d) Freq
 ---------------------------------------------------------------------

 Structure from the checkpoint file:  "MOLECULE_41.chk"
 -------------------
 Title Card Required
 -------------------
 Charge =  0 Multiplicity = 1

                         Standard orientation:
 ---------------------------------------------------------------------
 Center     Atomic      Atomic             Coordinates (Angstroms)
 Number     Number       Type             X           Y           Z
 ---------------------------------------------------------------------
      1          6           0       -5.869241   -1.202422    0.002819
      2          6           0       -3.897616   -0.022040    0.000382
      3          6           0       -4.588008    1.207459    0.000664
      4          6           0       -5.980214    1.194304    0.001881
      5          6           0       -6.641846   -0.035312    0.002934
      6          1           0       -6.349309   -2.179558    0.003553
      7          1           0       -4.030456    2.138839   -0.000118
      8          1           0       -6.537908    2.127198    0.002013
      9          1           0       -7.726323   -0.095117    0.003886
     10          6           0       -2.470709   -0.037059   -0.000482
     11          6           0       -1.249549   -0.021894   -0.001298
     12          6           0        0.110345   -0.011462   -0.002188
     13          6           0        1.332679   -0.002226   -0.003051
     14          6           0        2.753698    0.000531   -0.003440
     15          6           0        3.473573    1.213653   -0.005644
     16          6           0        3.475542   -1.211641   -0.006343
     17          6           0        4.865853    1.206086   -0.008920
     18          1           0        2.930269    2.154118   -0.008302
     19          6           0        4.867703   -1.201613   -0.009634
     20          1           0        2.933425   -2.152723   -0.009518
     21          6           0        5.588880    0.002843   -0.008236
     22          1           0        5.402786    2.152291   -0.013821
     23          1           0        5.406118   -2.146954   -0.015088
     24          6           0        7.098754    0.003802    0.024577
     25          1           0        7.467127   -0.001981    1.059669
     26          1           0        7.512083   -0.880080   -0.473774
     27          1           0        7.510899    0.893823   -0.463701
     28          7           0       -4.533966   -1.215417    0.001581
 ---------------------------------------------------------------------

 SCF Done:  E(RB3LYP) =  -671.014851847     A.U. after    1 cycles

 The electronic state is 1-A.
 Alpha  occ. eigenvalues --  -14.34688 -10.26011 -10.23699 -10.22788 -10.22408
 Alpha  occ. eigenvalues --  -10.21734 -10.21702 -10.21686 -10.21461 -10.21396
 Alpha  occ. eigenvalues --  -10.21182 -10.21024 -10.20990 -10.20911 -10.20455
 Alpha  occ. eigenvalues --  -10.20434 -10.19723  -0.95778  -0.87673  -0.81827
 Alpha  occ. eigenvalues --   -0.81619  -0.80398  -0.77872  -0.76104  -0.74059
 Alpha  occ. eigenvalues --   -0.70435  -0.66305  -0.64447  -0.62308  -0.62151
 Alpha  occ. eigenvalues --   -0.59245  -0.55279  -0.53801  -0.50205  -0.49545
 Alpha  occ. eigenvalues --   -0.48083  -0.47605  -0.45128  -0.43976  -0.43492
 Alpha  occ. eigenvalues --   -0.43258  -0.42098  -0.41870  -0.40151  -0.38813
 Alpha  occ. eigenvalues --   -0.38610  -0.36724  -0.35899  -0.35131  -0.34426
 Alpha  occ. eigenvalues --   -0.31051  -0.29762  -0.27138  -0.26928  -0.26769
 Alpha  occ. eigenvalues --   -0.25222  -0.21971
 Alpha virt. eigenvalues --   -0.07674  -0.03865  -0.02718  -0.02368  -0.02356
 Alpha virt. eigenvalues --    0.00015   0.00339   0.01584   0.02176   0.02337
 Alpha virt. eigenvalues --    0.03102   0.03180   0.04420   0.04745   0.05172

 Mulliken charges:
               1
     1  C   -0.147388
     2  C    0.129342
     3  C   -0.252399
     4  C   -0.223148
     5  C   -0.015084
     6  H    0.181387
     7  H    0.203796
     8  H    0.192032
     9  H    0.190001
    10  C   -1.055023
    11  C    0.831328
    12  C    1.230348
    13  C   -1.246258
    14  C   -0.202447
    15  C   -0.156239
    16  C   -0.137082
    17  C   -0.217630
    18  H    0.195797
    19  C   -0.246965
    20  H    0.198831
    21  C    0.427398
    22  H    0.178948
    23  H    0.179745
    24  C   -0.741467
    25  H    0.230387
    26  H    0.211252
    27  H    0.210749
    28  N   -0.150215
 Sum of Mulliken charges =   0.00000

 Dipole moment (field-independent basis, Debye):
    X=              0.6038    Y=              1.9850    Z=              0.0475  Tot=              2.0754
 Quadrupole moment (field-independent basis, Debye-Ang):
   XX=            -55.2642   YY=            -92.6892   ZZ=           -104.6151
   XY=             -7.6599   XZ=              0.3057   YZ=              0.0027

  Exact polarizability: 512.443  -0.288 166.768   0.712  -0.005  97.412
 Approx polarizability: 720.747   1.521 279.383   0.776  -0.008 142.580

                      1                      2                      3
                      A                      A                      A
 Frequencies --     11.0903                20.4799                26.1650
 Red. masses --      2.7438                 1.2017                 4.6136
 Frc consts  --      0.0002                 0.0003                 0.0019
 IR Inten    --      1.0339                 0.5870                 1.2582

                      4                      5                      6
                      A                      A                      A
 Frequencies --     28.8870                77.2631                77.5493
 Red. masses --      5.5397                 5.6330                 5.1287
 Frc consts  --      0.0027                 0.0198                 0.0182
 IR Inten    --      1.6596                 0.6179                 0.2918

                      7                      8                      9
                      A                      A                      A
 Frequencies --    153.1937               212.6131               218.4789
 Red. masses --      5.2429                 7.4742                 6.8342
 Frc consts  --      0.0725                 0.1991                 0.1922
 IR Inten    --      0.6056                 0.4467                 0.0804

                     10                     11                     12
                      A                      A                      A
 Frequencies --    240.0362               335.2049               344.5146
 Red. masses --      5.0892                 5.2994                 2.9121
 Frc consts  --      0.1728                 0.3508                 0.2036
 IR Inten    --      0.0260                 0.3949                 0.0176

                     13                     14                     15
                      A                      A                      A
 Frequencies --    411.5132               412.7054               437.3437
 Red. masses --      3.0361                 3.4327                 4.7358
 Frc consts  --      0.3029                 0.3445                 0.5337
 IR Inten    --      0.9064                 4.3296                 6.5156

                     16                     17                     18
                      A                      A                      A
 Frequencies --    455.0021               476.2651               523.2827
 Red. masses --      7.5800                 6.7324                 7.8775
 Frc consts  --      0.9246                 0.8997                 1.2709
 IR Inten    --     11.2963                 2.2881                 0.8413

                     19                     20                     21
                      A                      A                      A
 Frequencies --    525.5323               561.1504               625.8637
 Red. masses --      2.9698                 3.7413                 7.4320
 Frc consts  --      0.4833                 0.6941                 1.7152
 IR Inten    --      3.8839                11.1745                 2.9215

                     22                     23                     24
                      A                      A                      A
 Frequencies --    642.8354               653.8214               671.1355
 Red. masses --      6.1473                 7.3494                 9.4084
 Frc consts  --      1.4967                 1.8511                 2.4968
 IR Inten    --      2.5028                 0.7282                 0.3635

                     25                     26                     27
                      A                      A                      A
 Frequencies --    717.2993               748.7097               762.8727
 Red. masses --      3.3486                 1.9199                 5.6635
 Frc consts  --      1.0151                 0.6341                 1.9419
 IR Inten    --      1.5617                16.0304                 4.1704

                     28                     29                     30
                      A                      A                      A
 Frequencies --    782.3762               821.0238               826.1882
 Red. masses --      2.4466                 2.6785                 5.7089
 Frc consts  --      0.8823                 1.0638                 2.2959
 IR Inten    --     25.0559                45.3002                 5.2955

                     31                     32                     33
                      A                      A                      A
 Frequencies --    837.0946               848.4119               905.0085
 Red. masses --      2.0524                 1.2492                 1.3438
 Frc consts  --      0.8473                 0.5298                 0.6485
 IR Inten    --     18.8848                 0.0594                 1.0565

                     34                     35                     36
                      A                      A                      A
 Frequencies --    969.5915               977.4837               979.6720
 Red. masses --      1.2963                 1.3574                 1.4121
 Frc consts  --      0.7180                 0.7641                 0.7985
 IR Inten    --      0.9411                 0.0104                 0.3871

                     37                     38                     39
                      A                      A                      A
 Frequencies --    998.7790              1008.3594              1019.6011
 Red. masses --      7.0698                 1.3143                 8.1413
 Frc consts  --      4.1552                 0.7874                 4.9866
 IR Inten    --      4.8694                 0.0310                 2.3220

                     40                     41                     42
                      A                      A                      A
 Frequencies --   1021.6587              1041.3400              1070.3417
 Red. masses --      1.4049                 2.7552                 1.5691
 Frc consts  --      0.8640                 1.7603                 1.0591
 IR Inten    --      0.0450                 8.2624                20.2227

                     43                     44                     45
                      A                      A                      A
 Frequencies --   1072.5025              1122.4486              1155.0566
 Red. masses --      2.1645                 1.6053                 1.3509
 Frc consts  --      1.4669                 1.1916                 1.0619
 IR Inten    --      3.7033                 3.9384                 4.6599

                     46                     47                     48
                      A                      A                      A
 Frequencies --   1189.8980              1222.7624              1236.3335
 Red. masses --      1.1337                 1.2656                 3.3508
 Frc consts  --      0.9457                 1.1149                 3.0177
 IR Inten    --     10.6278                 1.6213                 0.6886

                     49                     50                     51
                      A                      A                      A
 Frequencies --   1247.1735              1294.7754              1323.8397
 Red. masses --      2.8949                 4.7739                 1.9730
 Frc consts  --      2.6530                 4.7153                 2.0373
 IR Inten    --     47.7808                10.6170                 0.3212

                     52                     53                     54
                      A                      A                      A
 Frequencies --   1323.9266              1349.7215              1389.9242
 Red. masses --      3.3578                 1.4999                 3.8866
 Frc consts  --      3.4676                 1.6099                 4.4238
 IR Inten    --      0.4968                 0.1726                 7.1591

                     55                     56                     57
                      A                      A                      A
 Frequencies --   1438.5640              1448.3339              1463.9218
 Red. masses --      1.2323                 2.4969                 2.0395
 Frc consts  --      1.5026                 3.0860                 2.5752
 IR Inten    --      0.6432                 1.7297                40.1065

                     58                     59                     60
                      A                      A                      A
 Frequencies --   1503.7062              1509.5148              1512.7792
 Red. masses --      2.4009                 1.1087                 1.0534
 Frc consts  --      3.1985                 1.4885                 1.4204
 IR Inten    --    138.5171                10.4319                 7.4400

                     61                     62                     63
                      A                      A                      A
 Frequencies --   1554.0856              1598.8864              1606.8793
 Red. masses --      2.5958                 5.0199                 4.9709
 Frc consts  --      3.6938                 7.5610                 7.5622
 IR Inten    --     10.2462                 0.4745                24.0620

                     64                     65                     66
                      A                      A                      A
 Frequencies --   1628.7068              1657.6793              2239.7506
 Red. masses --      5.1782                 5.4681                11.9975
 Frc consts  --      8.0931                 8.8529                35.4600
 IR Inten    --    133.2154                17.3062                 4.4229

                     67                     68                     69
                      A                      A                      A
 Frequencies --   2315.4985              3034.0869              3090.7499
 Red. masses --     11.9973                 1.0406                 1.0952
 Frc consts  --     37.8984                 5.6443                 6.1639
 IR Inten    --    157.0078                46.8121                21.6705

                     70                     71                     72
                      A                      A                      A
 Frequencies --   3117.1572              3171.3039              3176.1608
 Red. masses --      1.1028                 1.0892                 1.0888
 Frc consts  --      6.3134                 6.4542                 6.4715
 IR Inten    --     16.0826                30.9581                14.6673

                     73                     74                     75
                      A                      A                      A
 Frequencies --   3177.0442              3190.8344              3206.0225
 Red. masses --      1.0889                 1.0887                 1.0933
 Frc consts  --      6.4759                 6.5306                 6.6210
 IR Inten    --     29.5271                 8.4845                15.4987

                     76                     77                     78
                      A                      A                      A
 Frequencies --   3207.9444              3209.4991              3217.2897
 Red. masses --      1.0941                 1.0935                 1.0971
 Frc consts  --      6.6336                 6.6367                 6.6906
 IR Inten    --      2.3543                24.5281                10.4986

 - Thermochemistry -
 -------------------
 Temperature   298.150 Kelvin.  Pressure   1.00000 Atm.
 Atom     1 has atomic number  6 and mass  12.00000

 Molecular mass:   217.08915 amu.
 Principal axes and moments of inertia in atomic units:
                           1         2         3
     Eigenvalues --   637.56484********************
           X            1.00000  -0.00176   0.00007
           Y            0.00176   1.00000   0.00005
           Z           -0.00007  -0.00005   1.00000
 This molecule is an asymmetric top.
 Rotational symmetry number  1.
 Warning -- assumption of classical behavior for rotation
           may cause significant error
 Rotational temperatures (Kelvin)      0.13585     0.00534     0.00514
 Rotational constants (GHZ):           2.83068     0.11122     0.10709
 Zero-point vibrational energy     572308.4 (Joules/Mol)
                                  136.78500 (Kcal/Mol)
 Warning -- explicit consideration of  20 degrees of freedom as
           vibrations may cause significant error
 Vibrational temperatures:     15.96    29.47    37.65    41.56   111.16
          (Kelvin)            111.58   220.41   305.90   314.34   345.36
                              482.29   495.68   592.08   593.79   629.24
                              654.65   685.24   752.89   756.12   807.37
                              900.48   924.90   940.70   965.61  1032.03
                             1077.23  1097.60  1125.66  1181.27  1188.70
                             1204.39  1220.68  1302.11  1395.03  1406.38
                             1409.53  1437.02  1450.80  1466.98  1469.94
                             1498.26  1539.98  1543.09  1614.95  1661.87
                             1712.00  1759.28  1778.81  1794.40  1862.89
                             1904.71  1904.84  1941.95  1999.79  2069.77
                             2083.83  2106.26  2163.50  2171.86  2176.55
                             2235.98  2300.44  2311.94  2343.35  2385.03
                             3222.50  3331.49  4365.37  4446.90  4484.89
                             4562.80  4569.79  4571.06  4590.90  4612.75
                             4615.52  4617.75  4628.96

 Zero-point correction=                           0.217981 (Hartree/Particle)
 Thermal correction to Energy=                    0.232676
 Thermal correction to Enthalpy=                  0.233620
 Thermal correction to Gibbs Free Energy=         0.171212
 Sum of electronic and zero-point Energies=           -670.796871
 Sum of electronic and thermal Energies=              -670.782176
 Sum of electronic and thermal Enthalpies=            -670.781232
 Sum of electronic and thermal Free Energies=         -670.843639

                     E (Thermal)             CV                S
                      KCal/Mol        Cal/Mol-Kelvin    Cal/Mol-Kelvin
 Total                  146.006             54.595            131.348
 Electronic               0.000              0.000              0.000
 Translational            0.889              2.981             42.029
 Rotational               0.889              2.981             33.522
 Vibrational            144.229             48.634             55.798
 Vibration     1          0.593              1.987              7.805
 Vibration     2          0.593              1.986              6.587
 Vibration     3          0.593              1.985              6.101
 Vibration     4          0.593              1.984              5.904
 Vibration     5          0.599              1.964              3.959
 Vibration     6          0.599              1.964              3.952
 Vibration     7          0.619              1.899              2.632
 Vibration     8          0.644              1.822              2.021
 Vibration     9          0.646              1.813              1.972
 Vibration    10          0.657              1.779              1.803
 Vibration    11          0.716              1.605              1.235
 Vibration    12          0.723              1.586              1.191
 Vibration    13          0.775              1.445              0.921
 Vibration    14          0.776              1.443              0.917
 Vibration    15          0.798              1.389              0.835
 Vibration    16          0.813              1.350              0.781
 Vibration    17          0.833              1.303              0.720
 Vibration    18          0.878              1.198              0.602
 Vibration    19          0.880              1.193              0.597
 Vibration    20          0.917              1.115              0.522

                           ! Non-Optimized Parameters !
 Normal termination of Gaussian 16 at Mon Sep 18 06:39:09 2023.
