 Gaussian 16, Revision B.01,
 Gaussian 16:  EM64L-G16RevB.01 20-Dec-2017

 ---------------------------------------------------------
 # opt freq b3lyp/6-31+g(d) empiricaldispersion=gd3 volume
 ---------------------------------------------------------

 -------------------
 Title Card Required
 -------------------
 Symbolic Z-matrix:
 Charge =  0 Multiplicity = 1

 SCF Done:  E(RB3LYP) =  -618.119947675     A.U. after   15 cycles
 SCF Done:  E(RB3LYP) =  -618.139108204     A.U. after   14 cycles
 SCF Done:  E(RB3LYP) =  -618.134064184     A.U. after   17 cycles
 SCF Done:  E(RB3LYP) =  -618.138929679     A.U. after   15 cycles
 SCF Done:  E(RB3LYP) =  -618.140580064     A.U. after   11 cycles
 SCF Done:  E(RB3LYP) =  -618.140571819     A.U. after   15 cycles
 SCF Done:  E(RB3LYP) =  -618.140647705     A.U. after   15 cycles
 SCF Done:  E(RB3LYP) =  -618.140962282     A.U. after   13 cycles
 SCF Done:  E(RB3LYP) =  -618.141046152     A.U. after   16 cycles
 SCF Done:  E(RB3LYP) =  -618.141053306     A.U. after   13 cycles
 SCF Done:  E(RB3LYP) =  -618.141054159     A.U. after   11 cycles
 SCF Done:  E(RB3LYP) =  -618.141054184     A.U. after   10 cycles
 SCF Done:  E(RB3LYP) =  -618.141054189     A.U. after    8 cycles
 Optimization completed.
    -- Stationary point found.
 Normal termination of Gaussian 16 at Sat Sep 16 13:18:34 2023.

 ---------------------------------------------------------------------
 #N Geom=AllCheck Guess=TCheck SCRF=Check GenChk RB3LYP/6-31+G(d) Freq
 ---------------------------------------------------------------------

 Structure from the checkpoint file:  "molecule_68.chk"
 -------------------
 Title Card Required
 -------------------
 Charge =  0 Multiplicity = 1

                         Standard orientation:
 ---------------------------------------------------------------------
 Center     Atomic      Atomic             Coordinates (Angstroms)
 Number     Number       Type             X           Y           Z
 ---------------------------------------------------------------------
      1          6           0       -4.518464    0.835697    0.003794
      2          6           0       -3.122772    0.923422    0.002226
      3          6           0       -2.371962   -0.280884    0.000387
      4          6           0       -3.039085   -1.522824    0.000204
      5          6           0       -4.430936   -1.582521    0.001779
      6          6           0       -5.174612   -0.398981    0.003577
      7          1           0       -5.103127    1.753129    0.005201
      8          1           0       -2.449117   -2.435008   -0.001191
      9          1           0       -4.931998   -2.546958    0.001598
     10          1           0       -6.261054   -0.434576    0.004805
     11          6           0       -0.947430   -0.240083   -0.001154
     12          6           0        0.269443   -0.192034   -0.003046
     13          6           0        1.693144   -0.137954   -0.004210
     14          6           0        2.368224    1.099863   -0.009021
     15          6           0        2.462589   -1.319283   -0.004543
     16          6           0        3.760224    1.146623   -0.012546
     17          1           0        1.790076    2.019587   -0.013730
     18          6           0        3.854149   -1.256976   -0.008018
     19          1           0        1.957872   -2.281179   -0.005718
     20          6           0        4.529907   -0.027015   -0.009168
     21          1           0        4.259862    2.113259   -0.019601
     22          1           0        4.427668   -2.181694   -0.011438
     23          6           0        6.039064    0.032188    0.023350
     24          1           0        6.409018    0.052947    1.057750
     25          1           0        6.486062   -0.840715   -0.465490
     26          1           0        6.416772    0.931413   -0.476173
     27          6           0       -2.422694    2.259399    0.002464
     28          1           0       -1.774968    2.366019    0.881635
     29          1           0       -1.777387    2.367602   -0.878290
     30          1           0       -3.142403    3.084352    0.004188
 ---------------------------------------------------------------------

 SCF Done:  E(RB3LYP) =  -618.141054189     A.U. after    1 cycles

 The electronic state is 1-A.
 Alpha  occ. eigenvalues --  -10.22061 -10.21786 -10.21042 -10.20984 -10.20323
 Alpha  occ. eigenvalues --  -10.20300 -10.20050 -10.19916 -10.19903 -10.19890
 Alpha  occ. eigenvalues --  -10.19704 -10.19623 -10.19490 -10.19322 -10.19256
 Alpha  occ. eigenvalues --  -10.18662  -0.87085  -0.86787  -0.80224  -0.78339
 Alpha  occ. eigenvalues --   -0.77123  -0.75488  -0.73449  -0.69883  -0.68652
 Alpha  occ. eigenvalues --   -0.62734  -0.61709  -0.60228  -0.59290  -0.54527
 Alpha  occ. eigenvalues --   -0.52403  -0.47828  -0.47558  -0.47083  -0.46887
 Alpha  occ. eigenvalues --   -0.43801  -0.43065  -0.42893  -0.42793  -0.42500
 Alpha  occ. eigenvalues --   -0.41639  -0.39660  -0.39256  -0.37875  -0.36488
 Alpha  occ. eigenvalues --   -0.36223  -0.35571  -0.35296  -0.34997  -0.31666
 Alpha  occ. eigenvalues --   -0.27224  -0.26915  -0.26187  -0.25240  -0.21295
 Alpha virt. eigenvalues --   -0.05540  -0.01851  -0.01246  -0.00341   0.00318
 Alpha virt. eigenvalues --    0.00930   0.01488   0.01868   0.02537   0.03501
 Alpha virt. eigenvalues --    0.04189   0.04309   0.04747   0.05176   0.05262

 Mulliken charges:
               1
     1  C   -0.793650
     2  C    0.658665
     3  C    0.450130
     4  C   -0.537843
     5  C   -0.176729
     6  C   -0.125792
     7  H    0.179270
     8  H    0.195450
     9  H    0.180763
    10  H    0.178789
    11  C   -0.190074
    12  C   -0.090228
    13  C    0.224809
    14  C   -0.218678
    15  C    0.034092
    16  C   -0.514588
    17  H    0.192602
    18  C   -0.505819
    19  H    0.192086
    20  C    0.493204
    21  H    0.176543
    22  H    0.176735
    23  C   -0.746634
    24  H    0.228281
    25  H    0.209479
    26  H    0.209599
    27  C   -0.745033
    28  H    0.231062
    29  H    0.231047
    30  H    0.202461
 Sum of Mulliken charges =   0.00000

 Dipole moment (field-independent basis, Debye):
    X=              0.8865    Y=              0.3739    Z=              0.0456  Tot=              0.9632
 Quadrupole moment (field-independent basis, Debye-Ang):
   XX=            -77.1533   YY=            -85.9148   ZZ=           -101.8918
   XY=             -0.5850   XZ=              0.2439   YZ=             -0.0072

  Exact polarizability: 370.182   6.856 180.918   0.632  -0.009 100.665
 Approx polarizability: 513.523  10.394 298.193   0.711  -0.045 151.285

                      1                      2                      3
                      A                      A                      A
 Frequencies --     16.9901                24.0428                36.0460
 Red. masses --      2.2999                 1.2315                 4.1697
 Frc consts  --      0.0004                 0.0004                 0.0032
 IR Inten    --      0.0626                 0.3196                 0.3099

                      4                      5                      6
                      A                      A                      A
 Frequencies --     41.9395               106.9856               124.9305
 Red. masses --      4.6532                 3.8746                 4.6698
 Frc consts  --      0.0048                 0.0261                 0.0429
 IR Inten    --      0.9804                 0.0471                 0.1119

                      7                      8                      9
                      A                      A                      A
 Frequencies --    143.3122               189.3691               230.1577
 Red. masses --      1.0704                 3.4185                 5.5134
 Frc consts  --      0.0130                 0.0722                 0.1721
 IR Inten    --      0.4459                 0.7218                 0.0639

                     10                     11                     12
                      A                      A                      A
 Frequencies --    238.1826               339.2503               348.6748
 Red. masses --      3.8112                 2.9555                 4.4918
 Frc consts  --      0.1274                 0.2004                 0.3217
 IR Inten    --      2.3404                 0.2288                 0.8449

                     13                     14                     15
                      A                      A                      A
 Frequencies --    365.8113               413.7998               429.4160
 Red. masses --      3.0672                 2.9514                 4.0084
 Frc consts  --      0.2418                 0.2978                 0.4355
 IR Inten    --      0.8972                 0.0030                 0.9097

                     16                     17                     18
                      A                      A                      A
 Frequencies --    469.8776               477.8966               509.5972
 Red. masses --      3.1855                 5.7470                 5.9968
 Frc consts  --      0.4144                 0.7733                 0.9175
 IR Inten    --      9.4816                 5.3662                 5.0003

                     19                     20                     21
                      A                      A                      A
 Frequencies --    540.1923               548.4471               576.4027
 Red. masses --      3.0054                 5.9499                 4.4173
 Frc consts  --      0.5167                 1.0545                 0.8647
 IR Inten    --     11.3190                 2.7657                 0.0187

                     22                     23                     24
                      A                      A                      A
 Frequencies --    586.6022               659.3382               666.6664
 Red. masses --      6.6890                 7.0599                 5.5942
 Frc consts  --      1.3561                 1.8083                 1.4649
 IR Inten    --      0.0687                 0.1530                 2.6231

                     25                     26                     27
                      A                      A                      A
 Frequencies --    718.1592               728.2358               768.3734
 Red. masses --      3.3139                 2.6017                 1.4441
 Frc consts  --      1.0070                 0.8129                 0.5023
 IR Inten    --      0.4242                13.3408                51.2437

                     28                     29                     30
                      A                      A                      A
 Frequencies --    770.4812               816.4267               832.4898
 Red. masses --      4.6727                 4.8592                 1.5025
 Frc consts  --      1.6344                 1.9083                 0.6135
 IR Inten    --      0.9174                 0.8271                47.5980

                     31                     32                     33
                      A                      A                      A
 Frequencies --    847.5640               871.6836               879.2741
 Red. masses --      1.2498                 5.6395                 1.3149
 Frc consts  --      0.5290                 2.5247                 0.5989
 IR Inten    --      0.0553                 0.2846                 0.2118

                     34                     35                     36
                      A                      A                      A
 Frequencies --    952.8477               966.1581               975.0074
 Red. masses --      1.3679                 1.2933                 1.3574
 Frc consts  --      0.7317                 0.7113                 0.7603
 IR Inten    --      1.2526                 0.7332                 0.0047

                     37                     38                     39
                      A                      A                      A
 Frequencies --    990.6434              1020.0929              1020.8158
 Red. masses --      1.2921                 1.5836                 1.4045
 Frc consts  --      0.7471                 0.9709                 0.8623
 IR Inten    --      0.0094                 2.1699                 0.0597

                     40                     41                     42
                      A                      A                      A
 Frequencies --   1038.8176              1070.2416              1071.3627
 Red. masses --      2.9098                 1.5587                 2.2254
 Frc consts  --      1.8501                 1.0519                 1.5050
 IR Inten    --      1.4819                20.4343                 3.3783

                     43                     44                     45
                      A                      A                      A
 Frequencies --   1075.0750              1129.4725              1153.9229
 Red. masses --      1.5130                 2.5885                 1.3476
 Frc consts  --      1.0303                 1.9456                 1.0573
 IR Inten    --      2.2308                 3.1304                 5.6690

                     46                     47                     48
                      A                      A                      A
 Frequencies --   1175.8530              1202.4031              1224.2089
 Red. masses --      2.2870                 1.1084                 1.4854
 Frc consts  --      1.8630                 0.9442                 1.3116
 IR Inten    --      0.7323                 0.3917                 1.0813

                     49                     50                     51
                      A                      A                      A
 Frequencies --   1228.0729              1237.7828              1310.6575
 Red. masses --      1.7023                 3.0025                 1.7168
 Frc consts  --      1.5126                 2.7103                 1.7376
 IR Inten    --      1.5681                 2.7073                 1.9954

                     52                     53                     54
                      A                      A                      A
 Frequencies --   1323.7506              1337.1873              1349.1644
 Red. masses --      4.4366                 4.8760                 1.4927
 Frc consts  --      4.5805                 5.1368                 1.6009
 IR Inten    --      0.0418                 1.0744                 0.0933

                     55                     56                     57
                      A                      A                      A
 Frequencies --   1349.6755              1438.5093              1441.2809
 Red. masses --      3.3054                 1.2339                 1.2352
 Frc consts  --      3.5476                 1.5044                 1.5118
 IR Inten    --      4.2957                 0.4612                 1.4097

                     58                     59                     60
                      A                      A                      A
 Frequencies --   1448.1984              1480.8006              1504.1496
 Red. masses --      2.5045                 1.9182                 1.0428
 Frc consts  --      3.0948                 2.4782                 1.3901
 IR Inten    --      0.9516                 0.9221                 8.9604

                     61                     62                     63
                      A                      A                      A
 Frequencies --   1510.6141              1512.6948              1513.9523
 Red. masses --      1.1082                 1.0614                 1.4940
 Frc consts  --      1.4900                 1.4310                 2.0176
 IR Inten    --      7.7722                 7.2936                16.2415

                     64                     65                     66
                      A                      A                      A
 Frequencies --   1527.0720              1557.1616              1600.7518
 Red. masses --      1.6957                 2.6474                 5.0966
 Frc consts  --      2.3297                 3.7821                 7.6945
 IR Inten    --     13.0826                58.6672                 0.9032

                     67                     68                     69
                      A                      A                      A
 Frequencies --   1611.5073              1648.2268              1661.4842
 Red. masses --      5.3026                 5.3424                 5.5807
 Frc consts  --      8.1133                 8.5510                 9.0767
 IR Inten    --      0.6016                 8.4820                 0.3249

                     70                     71                     72
                      A                      A                      A
 Frequencies --   2302.1595              3032.6028              3038.9144
 Red. masses --     11.9941                 1.0406                 1.0366
 Frc consts  --     37.4533                 5.6384                 5.6402
 IR Inten    --      1.2975                48.7469                19.6417

                     73                     74                     75
                      A                      A                      A
 Frequencies --   3088.5712              3090.4074              3114.6881
 Red. masses --      1.0953                 1.1003                 1.1027
 Frc consts  --      6.1557                 6.1914                 6.3027
 IR Inten    --     21.5430                13.2304                16.9292

                     76                     77                     78
                      A                      A                      A
 Frequencies --   3119.1011              3172.8550              3172.9403
 Red. masses --      1.1019                 1.0869                 1.0885
 Frc consts  --      6.3164                 6.4467                 6.4567
 IR Inten    --     24.4053                 9.0203                17.3786

                     79                     80                     81
                      A                      A                      A
 Frequencies --   3173.7502              3184.6656              3197.2017
 Red. masses --      1.0887                 1.0886                 1.0928
 Frc consts  --      6.4609                 6.5051                 6.5814
 IR Inten    --     27.6786                 9.2308                28.7925

                     82                     83                     84
                      A                      A                      A
 Frequencies --   3202.1717              3204.2564              3208.1411
 Red. masses --      1.0932                 1.0939                 1.0969
 Frc consts  --      6.6044                 6.6174                 6.6516
 IR Inten    --     19.6287                 1.6545                24.2507

 - Thermochemistry -
 -------------------
 Temperature   298.150 Kelvin.  Pressure   1.00000 Atm.
 Atom     1 has atomic number  6 and mass  12.00000

 Molecular mass:   206.10955 amu.
 Principal axes and moments of inertia in atomic units:
                           1         2         3
     Eigenvalues --   971.727699540.71881**********
           X            1.00000  -0.00262   0.00017
           Y            0.00262   1.00000  -0.00001
           Z           -0.00017   0.00001   1.00000
 This molecule is an asymmetric top.
 Rotational symmetry number  1.
 Warning -- assumption of classical behavior for rotation
           may cause significant error
 Rotational temperatures (Kelvin)      0.08913     0.00908     0.00826
 Rotational constants (GHZ):           1.85725     0.18916     0.17204
 Zero-point vibrational energy     647650.2 (Joules/Mol)
                                  154.79212 (Kcal/Mol)
 Warning -- explicit consideration of  22 degrees of freedom as
           vibrations may cause significant error
 Vibrational temperatures:     24.45    34.59    51.86    60.34   153.93
          (Kelvin)            179.75   206.19   272.46   331.15   342.69
                              488.11   501.67   526.32   595.37   617.83
                              676.05   687.59   733.20   777.22   789.09
                              829.31   843.99   948.64   959.18  1033.27
                             1047.77  1105.52  1108.55  1174.66  1197.77
                             1219.46  1254.16  1265.08  1370.94  1390.09
                             1402.82  1425.31  1467.69  1468.73  1494.63
                             1539.84  1541.45  1546.79  1625.06  1660.24
                             1691.79  1729.99  1761.36  1766.92  1780.89
                             1885.74  1904.58  1923.91  1941.15  1941.88
                             2069.69  2073.68  2083.63  2130.54  2164.14
                             2173.44  2176.43  2178.24  2197.12  2240.41
                             2303.12  2318.60  2371.43  2390.51  3312.29
                             4363.24  4372.32  4443.77  4446.41  4481.34
                             4487.69  4565.03  4565.15  4566.32  4582.02
                             4600.06  4607.21  4610.21  4615.80

 Zero-point correction=                           0.246677 (Hartree/Particle)
 Thermal correction to Energy=                    0.261323
 Thermal correction to Enthalpy=                  0.262267
 Thermal correction to Gibbs Free Energy=         0.201843
 Sum of electronic and zero-point Energies=           -617.894377
 Sum of electronic and thermal Energies=              -617.879732
 Sum of electronic and thermal Enthalpies=            -617.878787
 Sum of electronic and thermal Free Energies=         -617.939211

                     E (Thermal)             CV                S
                      KCal/Mol        Cal/Mol-Kelvin    Cal/Mol-Kelvin
 Total                  163.982             55.317            127.173
 Electronic               0.000              0.000              0.000
 Translational            0.889              2.981             41.874
 Rotational               0.889              2.981             32.942
 Vibrational            162.205             49.355             52.358
 Vibration     1          0.593              1.986              6.958
 Vibration     2          0.593              1.985              6.269
 Vibration     3          0.594              1.982              5.465
 Vibration     4          0.595              1.980              5.165
 Vibration     5          0.606              1.944              3.323
 Vibration     6          0.610              1.928              3.023
 Vibration     7          0.616              1.910              2.759
 Vibration     8          0.633              1.855              2.234
 Vibration     9          0.652              1.795              1.878
 Vibration    10          0.656              1.782              1.816
 Vibration    11          0.719              1.597              1.216
 Vibration    12          0.726              1.578              1.172
 Vibration    13          0.739              1.543              1.097
 Vibration    14          0.777              1.440              0.913
 Vibration    15          0.791              1.406              0.861
 Vibration    16          0.827              1.317              0.738
 Vibration    17          0.834              1.299              0.716
 Vibration    18          0.865              1.229              0.635
 Vibration    19          0.895              1.161              0.565
 Vibration    20          0.904              1.143              0.547
 Vibration    21          0.933              1.082              0.492
 Vibration    22          0.944              1.060              0.473

                           ! Non-Optimized Parameters !
 Normal termination of Gaussian 16 at Sat Sep 16 13:23:31 2023.
