 Gaussian 16, Revision B.01,
 Gaussian 16:  EM64L-G16RevB.01 20-Dec-2017

 ---------------------------------------------------------
 # opt freq b3lyp/6-31+g(d) empiricaldispersion=gd3 volume
 ---------------------------------------------------------

 -------------------
 Title Card Required
 -------------------
 Symbolic Z-matrix:
 Charge =  0 Multiplicity = 1

 SCF Done:  E(RB3LYP) =  -1038.41466005     A.U. after   14 cycles
 SCF Done:  E(RB3LYP) =  -1038.41619512     A.U. after   12 cycles
 SCF Done:  E(RB3LYP) =  -1038.41636832     A.U. after   11 cycles
 SCF Done:  E(RB3LYP) =  -1038.41637650     A.U. after   11 cycles
 SCF Done:  E(RB3LYP) =  -1038.41637647     A.U. after   10 cycles
 SCF Done:  E(RB3LYP) =  -1038.41637693     A.U. after    9 cycles
 SCF Done:  E(RB3LYP) =  -1038.41637697     A.U. after    8 cycles
 Optimization completed.
    -- Stationary point found.
 Normal termination of Gaussian 16 at Mon Sep 18 03:48:41 2023.

 ---------------------------------------------------------------------
 #N Geom=AllCheck Guess=TCheck SCRF=Check GenChk RB3LYP/6-31+G(d) Freq
 ---------------------------------------------------------------------

 Structure from the checkpoint file:  "molecule_24.chk"
 -------------------
 Title Card Required
 -------------------
 Charge =  0 Multiplicity = 1

                         Standard orientation:
 ---------------------------------------------------------------------
 Center     Atomic      Atomic             Coordinates (Angstroms)
 Number     Number       Type             X           Y           Z
 ---------------------------------------------------------------------
      1          6           0       -3.695646    1.215761    0.001432
      2          6           0       -2.302799    1.212429    0.000173
      3          6           0       -1.582158    0.000013   -0.000443
      4          6           0       -2.302783   -1.212414    0.000290
      5          6           0       -3.695629   -1.215765    0.001551
      6          6           0       -4.383105   -0.000007    0.002124
      7          1           0       -4.245823    2.151211    0.001881
      8          1           0       -1.761062    2.153468   -0.000352
      9          1           0       -1.761032   -2.153445   -0.000142
     10          1           0       -4.245793   -2.151223    0.002092
     11          6           0       -0.158145    0.000022   -0.001624
     12          6           0        1.059356    0.000030   -0.003077
     13          6           0        2.484025    0.000022   -0.004185
     14          6           0        3.206047    1.210921   -0.006637
     15          6           0        3.206032   -1.210893   -0.006792
     16          6           0        4.598770    1.202940   -0.009971
     17          1           0        2.664334    2.152465   -0.009510
     18          6           0        4.598748   -1.202932   -0.010126
     19          1           0        2.664302   -2.152427   -0.009786
     20          6           0        5.321770    0.000002   -0.008861
     21          1           0        5.135835    2.149198   -0.015086
     22          1           0        5.135803   -2.149196   -0.015365
     23          6           0        6.831951   -0.000046    0.023679
     24          1           0        7.201720   -0.000979    1.058301
     25          1           0        7.244500   -0.886426   -0.471042
     26          1           0        7.244532    0.887186   -0.469478
     27         17           0       -6.140937   -0.000019    0.003723
 ---------------------------------------------------------------------

 SCF Done:  E(RB3LYP) =  -1038.41637697     A.U. after    1 cycles

 The electronic state is 1-A.
 Alpha  occ. eigenvalues -- -101.55927 -10.26533 -10.23300 -10.22491 -10.21685
 Alpha  occ. eigenvalues --  -10.21684 -10.21627 -10.21627 -10.21425 -10.20730
 Alpha  occ. eigenvalues --  -10.20729 -10.20254 -10.20253 -10.20242 -10.19984
 Alpha  occ. eigenvalues --  -10.19595  -9.47442  -7.23845  -7.22879  -7.22846
 Alpha  occ. eigenvalues --   -0.90206  -0.87416  -0.85436  -0.80536  -0.77689
 Alpha  occ. eigenvalues --   -0.77158  -0.75875  -0.73518  -0.69595  -0.63382
 Alpha  occ. eigenvalues --   -0.62955  -0.62090  -0.60418  -0.55925  -0.53602
 Alpha  occ. eigenvalues --   -0.48903  -0.48635  -0.47796  -0.47419  -0.45494
 Alpha  occ. eigenvalues --   -0.44565  -0.43671  -0.43276  -0.43100  -0.40942
 Alpha  occ. eigenvalues --   -0.39970  -0.38927  -0.38195  -0.37705  -0.36493
 Alpha  occ. eigenvalues --   -0.35576  -0.35475  -0.32119  -0.31221  -0.27997
 Alpha  occ. eigenvalues --   -0.27593  -0.26984  -0.26560  -0.21882
 Alpha virt. eigenvalues --   -0.06305  -0.03026  -0.02194  -0.01305  -0.00344
 Alpha virt. eigenvalues --    0.00463   0.01247   0.01633   0.01799   0.02613
 Alpha virt. eigenvalues --    0.03702   0.03816   0.04337   0.04619   0.05118

 Mulliken charges:
               1
     1  C   -0.424181
     2  C   -0.180158
     3  C   -0.105145
     4  C   -0.180213
     5  C   -0.424164
     6  C    0.284400
     7  H    0.202703
     8  H    0.199265
     9  H    0.199265
    10  H    0.202703
    11  C   -0.036754
    12  C   -0.029451
    13  C    0.087335
    14  C   -0.145658
    15  C   -0.145165
    16  C   -0.410482
    17  H    0.192370
    18  C   -0.408775
    19  H    0.192370
    20  C    0.448727
    21  H    0.177819
    22  H    0.177823
    23  C   -0.760250
    24  H    0.229226
    25  H    0.210210
    26  H    0.210179
    27  Cl   0.236002
 Sum of Mulliken charges =   0.00000

 Dipole moment (field-independent basis, Debye):
    X=              2.8259    Y=             -0.0001    Z=              0.0444  Tot=              2.8262
 Quadrupole moment (field-independent basis, Debye-Ang):
   XX=            -94.9366   YY=            -89.7139   ZZ=           -107.0201
   XY=             -0.0009   XZ=              0.3001   YZ=              0.0001

  Exact polarizability: 409.231  -0.002 168.402   0.657   0.001  97.495
 Approx polarizability: 544.394  -0.002 287.627   0.755   0.001 144.982

                      1                      2                      3
                      A                      A                      A
 Frequencies --     17.9363                23.7532                30.9658
 Red. masses --      1.4870                 1.7674                 6.9925
 Frc consts  --      0.0003                 0.0006                 0.0040
 IR Inten    --      0.1635                 0.1771                 0.1526

                      4                      5                      6
                      A                      A                      A
 Frequencies --     32.4761                84.0287               124.5505
 Red. masses --      5.6122                 5.7343                 6.0299
 Frc consts  --      0.0035                 0.0239                 0.0551
 IR Inten    --      0.0517                 0.6867                 0.2196

                      7                      8                      9
                      A                      A                      A
 Frequencies --    170.9709               209.2831               255.4959
 Red. masses --      5.8490                 8.2673                 5.3991
 Frc consts  --      0.1007                 0.2133                 0.2077
 IR Inten    --      0.1131                 0.3165                 0.3833

                     10                     11                     12
                      A                      A                      A
 Frequencies --    292.4976               345.3521               376.3839
 Red. masses --      6.8025                 2.8574                 5.4249
 Frc consts  --      0.3429                 0.2008                 0.4528
 IR Inten    --      0.6633                 0.0254                 5.9712

                     13                     14                     15
                      A                      A                      A
 Frequencies --    413.0858               416.7178               419.1144
 Red. masses --      2.9516                 2.9895                 9.8655
 Frc consts  --      0.2967                 0.3059                 1.0210
 IR Inten    --      0.0016                 0.0001                22.5541

                     16                     17                     18
                      A                      A                      A
 Frequencies --    449.2751               486.1794               533.2211
 Red. masses --      4.4095                 5.8991                 2.8024
 Frc consts  --      0.5244                 0.8215                 0.4695
 IR Inten    --      0.0471                 1.7657                30.1810

                     19                     20                     21
                      A                      A                      A
 Frequencies --    547.9687               555.5427               566.9006
 Red. masses --      7.6977                 3.7553                 6.2871
 Frc consts  --      1.3618                 0.6829                 1.1905
 IR Inten    --      0.0002                 0.1800                 2.8317

                     22                     23                     24
                      A                      A                      A
 Frequencies --    649.1199               659.4800               707.9551
 Red. masses --      7.2881                 7.0890                 5.4905
 Frc consts  --      1.8093                 1.8165                 1.6213
 IR Inten    --      0.3812                 0.0522                 6.7660

                     25                     26                     27
                      A                      A                      A
 Frequencies --    713.7562               718.9833               800.2393
 Red. masses --      3.9648                 3.5459                 5.2146
 Frc consts  --      1.1901                 1.0800                 1.9675
 IR Inten    --      0.4158                 2.6892                 7.5415

                     28                     29                     30
                      A                      A                      A
 Frequencies --    831.6235               833.3736               840.1398
 Red. masses --      1.4838                 1.2469                 1.5581
 Frc consts  --      0.6046                 0.5102                 0.6480
 IR Inten    --     23.4252                 0.0000                77.6050

                     31                     32                     33
                      A                      A                      A
 Frequencies --    847.8226               865.8625               964.4527
 Red. masses --      1.2497                 6.2792                 1.3110
 Frc consts  --      0.5292                 2.7736                 0.7185
 IR Inten    --      0.0183                 1.8037                 0.0095

                     34                     35                     36
                      A                      A                      A
 Frequencies --    966.6623               972.5595               975.5856
 Red. masses --      1.2915                 1.3492                 1.3576
 Frc consts  --      0.7110                 0.7519                 0.7613
 IR Inten    --      0.8112                 0.0000                 0.0007

                     37                     38                     39
                      A                      A                      A
 Frequencies --   1021.1718              1030.1133              1038.8576
 Red. masses --      1.4040                 3.8650                 2.9034
 Frc consts  --      0.8626                 2.4164                 1.8461
 IR Inten    --      0.0463                29.9596                 2.4948

                     40                     41                     42
                      A                      A                      A
 Frequencies --   1070.2149              1104.8310              1143.4599
 Red. masses --      1.5277                 3.3256                 1.3929
 Frc consts  --      1.0309                 2.3918                 1.0730
 IR Inten    --     18.3831                74.9477                 4.8835

                     43                     44                     45
                      A                      A                      A
 Frequencies --   1154.5250              1162.7079              1219.0852
 Red. masses --      1.3479                 3.7212                 1.1514
 Frc consts  --      1.0586                 2.9640                 1.0082
 IR Inten    --      5.9163                 9.1645                 0.1356

                     46                     47                     48
                      A                      A                      A
 Frequencies --   1226.4310              1237.8278              1316.4117
 Red. masses --      1.1576                 3.0416                 7.9841
 Frc consts  --      1.0258                 2.7458                 8.1519
 IR Inten    --      2.5977                 2.3986                 0.1833

                     49                     50                     51
                      A                      A                      A
 Frequencies --   1324.5388              1333.7561              1349.4487
 Red. masses --      4.6305                 1.3088                 1.4917
 Frc consts  --      4.7863                 1.3717                 1.6004
 IR Inten    --      0.0878                 0.0274                 0.1168

                     52                     53                     54
                      A                      A                      A
 Frequencies --   1350.5153              1438.5949              1438.6338
 Red. masses --      3.8999                 2.7327                 1.2333
 Frc consts  --      4.1909                 3.3321                 1.5039
 IR Inten    --      4.9058                 3.7918                 0.4672

                     55                     56                     57
                      A                      A                      A
 Frequencies --   1448.4409              1510.3574              1512.7638
 Red. masses --      2.5015                 1.1067                 1.0530
 Frc consts  --      3.0922                 1.4874                 1.4198
 IR Inten    --      1.6668                 9.7806                 7.2039

                     58                     59                     60
                      A                      A                      A
 Frequencies --   1529.0708              1557.0704              1596.9705
 Red. masses --      2.2374                 2.6485                 6.4659
 Frc consts  --      3.0822                 3.7833                 9.7156
 IR Inten    --     62.2954                95.7034                 0.1844

                     61                     62                     63
                      A                      A                      A
 Frequencies --   1601.1972              1640.0776              1661.5102
 Red. masses --      5.1822                 5.4194                 5.5703
 Frc consts  --      7.8281                 8.5887                 9.0602
 IR Inten    --      0.6530                 0.1297                 3.2126

                     64                     65                     66
                      A                      A                      A
 Frequencies --   2305.5274              3033.4154              3089.6622
 Red. masses --     11.9976                 1.0406                 1.0953
 Frc consts  --     37.5739                 5.6413                 6.1603
 IR Inten    --     13.6347                46.9403                21.4028

                     67                     68                     69
                      A                      A                      A
 Frequencies --   3115.7775              3174.3562              3175.0258
 Red. masses --      1.1027                 1.0887                 1.0887
 Frc consts  --      6.3074                 6.4633                 6.4663
 IR Inten    --     16.5523                12.9797                30.0576

                     70                     71                     72
                      A                      A                      A
 Frequencies --   3203.0353              3203.1886              3203.6135
 Red. masses --      1.0888                 1.0929                 1.0890
 Frc consts  --      6.5814                 6.6071                 6.5849
 IR Inten    --      6.4737                17.2108                 5.6402

                     73                     74                     75
                      A                      A                      A
 Frequencies --   3204.9276              3219.8559              3221.4957
 Red. masses --      1.0941                 1.0946                 1.0954
 Frc consts  --      6.6211                 6.6862                 6.6978
 IR Inten    --      0.1326                 8.1645                 1.6871

 - Thermochemistry -
 -------------------
 Temperature   298.150 Kelvin.  Pressure   1.00000 Atm.
 Atom     1 has atomic number  6 and mass  12.00000

 Molecular mass:   226.05493 amu.
 Principal axes and moments of inertia in atomic units:
                           1         2         3
     Eigenvalues --   646.96977********************
           X            1.00000   0.00000   0.00022
           Y            0.00000   1.00000  -0.00001
           Z           -0.00022   0.00001   1.00000
 This molecule is an asymmetric top.
 Rotational symmetry number  1.
 Warning -- assumption of classical behavior for rotation
           may cause significant error
 Rotational temperatures (Kelvin)      0.13388     0.00600     0.00575
 Rotational constants (GHZ):           2.78953     0.12504     0.11976
 Zero-point vibrational energy     549491.4 (Joules/Mol)
                                  131.33158 (Kcal/Mol)
 Warning -- explicit consideration of  21 degrees of freedom as
           vibrations may cause significant error
 Vibrational temperatures:     25.81    34.18    44.55    46.73   120.90
          (Kelvin)            179.20   245.99   301.11   367.60   420.84
                              496.88   541.53   594.34   599.56   603.01
                              646.41   699.50   767.19   788.40   799.30
                              815.64   933.94   948.84  1018.59  1026.94
                             1034.46  1151.37  1196.52  1199.04  1208.77
                             1219.83  1245.78  1387.63  1390.81  1399.30
                             1403.65  1469.24  1482.10  1494.68  1539.80
                             1589.61  1645.18  1661.10  1672.88  1753.99
                             1764.56  1780.96  1894.02  1905.72  1918.98
                             1941.56  1943.09  2069.82  2069.87  2083.98
                             2173.07  2176.53  2199.99  2240.28  2297.68
                             2303.77  2359.71  2390.54  3317.14  4364.41
                             4445.33  4482.91  4567.19  4568.15  4608.45
                             4608.67  4609.29  4611.18  4632.65  4635.01

 Zero-point correction=                           0.209290 (Hartree/Particle)
 Thermal correction to Energy=                    0.223537
 Thermal correction to Enthalpy=                  0.224481
 Thermal correction to Gibbs Free Energy=         0.164098
 Sum of electronic and zero-point Energies=          -1038.207087
 Sum of electronic and thermal Energies=             -1038.192840
 Sum of electronic and thermal Enthalpies=           -1038.191896
 Sum of electronic and thermal Free Energies=        -1038.252279

                     E (Thermal)             CV                S
                      KCal/Mol        Cal/Mol-Kelvin    Cal/Mol-Kelvin
 Total                  140.271             53.289            127.087
 Electronic               0.000              0.000              0.000
 Translational            0.889              2.981             42.149
 Rotational               0.889              2.981             33.309
 Vibrational            138.494             47.328             51.629
 Vibration     1          0.593              1.986              6.850
 Vibration     2          0.593              1.985              6.293
 Vibration     3          0.594              1.984              5.767
 Vibration     4          0.594              1.983              5.672
 Vibration     5          0.601              1.960              3.795
 Vibration     6          0.610              1.928              3.029
 Vibration     7          0.626              1.878              2.425
 Vibration     8          0.642              1.827              2.050
 Vibration     9          0.666              1.754              1.692
 Vibration    10          0.688              1.688              1.459
 Vibration    11          0.724              1.585              1.187
 Vibration    12          0.747              1.520              1.054
 Vibration    13          0.777              1.442              0.916
 Vibration    14          0.780              1.434              0.903
 Vibration    15          0.782              1.429              0.895
 Vibration    16          0.808              1.362              0.798
 Vibration    17          0.842              1.281              0.694
 Vibration    18          0.888              1.177              0.580
 Vibration    19          0.903              1.144              0.548
 Vibration    20          0.911              1.128              0.533
 Vibration    21          0.923              1.103              0.510

 Optimization completed.
    -- Stationary point found.
 Normal termination of Gaussian 16 at Mon Sep 18 03:53:10 2023.
