 Gaussian 16, Revision B.01,
 Gaussian 16:  EM64L-G16RevB.01 20-Dec-2017

 ---------------------------------------------------------
 # opt freq b3lyp/6-31+g(d) empiricaldispersion=gd3 volume
 ---------------------------------------------------------

 -------------------
 Title Card Required
 -------------------
 Symbolic Z-matrix:
 Charge =  0 Multiplicity = 1

 SCF Done:  E(RB3LYP) =  -594.851985492     A.U. after   16 cycles
 SCF Done:  E(RB3LYP) =  -594.853081785     A.U. after   14 cycles
 SCF Done:  E(RB3LYP) =  -594.855689135     A.U. after   13 cycles
 SCF Done:  E(RB3LYP) =  -594.857727247     A.U. after   15 cycles
 SCF Done:  E(RB3LYP) =  -594.857657402     A.U. after   13 cycles
 SCF Done:  E(RB3LYP) =  -594.857824517     A.U. after   13 cycles
 SCF Done:  E(RB3LYP) =  -594.857843359     A.U. after   11 cycles
 SCF Done:  E(RB3LYP) =  -594.857844573     A.U. after   10 cycles
 SCF Done:  E(RB3LYP) =  -594.857844835     A.U. after   10 cycles
 SCF Done:  E(RB3LYP) =  -594.857844884     A.U. after    9 cycles
 Optimization completed.
    -- Stationary point found.
 Normal termination of Gaussian 16 at Sun Sep 17 16:27:48 2023.

 ---------------------------------------------------------------------
 #N Geom=AllCheck Guess=TCheck SCRF=Check GenChk RB3LYP/6-31+G(d) Freq
 ---------------------------------------------------------------------

 Structure from the checkpoint file:  "molecule_13.chk"
 -------------------
 Title Card Required
 -------------------
 Charge =  0 Multiplicity = 1

                         Standard orientation:
 ---------------------------------------------------------------------
 Center     Atomic      Atomic             Coordinates (Angstroms)
 Number     Number       Type             X           Y           Z
 ---------------------------------------------------------------------
      1          6           0        2.254350   -1.208339   -0.003872
      2          6           0        1.525850   -0.000099   -0.003786
      3          6           0        2.254312    1.208261   -0.005267
      4          6           0        3.643770    1.209391   -0.005103
      5          6           0        4.364454   -0.000019   -0.003007
      6          1           0        1.715442   -2.151498   -0.002578
      7          1           0        1.715264    2.151340   -0.005046
      8          1           0        4.182094    2.154967   -0.012154
      9          6           0        0.102965   -0.000085   -0.002421
     10          6           0       -1.115286   -0.000017   -0.001521
     11          6           0       -2.540003    0.000027    0.000224
     12          6           0       -3.259232   -1.214225    0.000406
     13          6           0       -3.259227    1.214264    0.001827
     14          6           0       -4.653325   -1.209439    0.002170
     15          1           0       -2.712441   -2.152797   -0.001037
     16          6           0       -4.653325    1.209467    0.003578
     17          1           0       -2.712449    2.152846    0.001503
     18          6           0       -5.356980    0.000016    0.003776
     19          1           0       -5.193088   -2.153152    0.002166
     20          1           0       -5.193092    2.153177    0.004680
     21          1           0       -6.443846    0.000021    0.005065
     22          6           0        3.643886   -1.209401   -0.003712
     23          1           0        4.182148   -2.155016   -0.009667
     24          7           0        5.758831    0.000094   -0.060542
     25          1           0        6.217348    0.840185    0.270124
     26          1           0        6.217554   -0.839543    0.270987
 ---------------------------------------------------------------------

 SCF Done:  E(RB3LYP) =  -594.857844884     A.U. after    1 cycles

 The electronic state is 1-A.
 Alpha  occ. eigenvalues --  -14.36162 -10.24543 -10.21894 -10.21199 -10.20322
 Alpha  occ. eigenvalues --  -10.20320 -10.19899 -10.19899 -10.19833 -10.19809
 Alpha  occ. eigenvalues --  -10.19766 -10.19765 -10.19755 -10.19055 -10.18705
 Alpha  occ. eigenvalues --   -0.93479  -0.86348  -0.85491  -0.78659  -0.76070
 Alpha  occ. eigenvalues --   -0.75653  -0.75131  -0.71087  -0.63496  -0.62562
 Alpha  occ. eigenvalues --   -0.61018  -0.60923  -0.54815  -0.53437  -0.52603
 Alpha  occ. eigenvalues --   -0.51310  -0.48207  -0.45749  -0.44682  -0.44514
 Alpha  occ. eigenvalues --   -0.43746  -0.43000  -0.42648  -0.40018  -0.38893
 Alpha  occ. eigenvalues --   -0.37995  -0.36201  -0.35630  -0.35185  -0.34351
 Alpha  occ. eigenvalues --   -0.30064  -0.26826  -0.26232  -0.25818  -0.24967
 Alpha  occ. eigenvalues --   -0.19807
 Alpha virt. eigenvalues --   -0.04750  -0.01788  -0.01335  -0.00751   0.00341
 Alpha virt. eigenvalues --    0.00637   0.01721   0.01799   0.02692   0.03586
 Alpha virt. eigenvalues --    0.04313   0.04838   0.05161   0.05849   0.06012

 Mulliken charges:
               1
     1  C   -0.710931
     2  C    0.280630
     3  C   -0.711360
     4  C    0.169959
     5  C    0.170577
     6  H    0.191856
     7  H    0.191862
     8  H    0.169274
     9  C    0.014033
    10  C   -0.010103
    11  C    0.131228
    12  C   -0.238810
    13  C   -0.238812
    14  C   -0.180635
    15  H    0.189793
    16  C   -0.180639
    17  H    0.189790
    18  C   -0.213170
    19  H    0.179859
    20  H    0.179858
    21  H    0.178606
    22  C    0.170030
    23  H    0.169278
    24  N   -0.847631
    25  H    0.377727
    26  H    0.377732
 Sum of Mulliken charges =   0.00000

 Dipole moment (field-independent basis, Debye):
    X=              2.3750    Y=              0.0007    Z=              0.9859  Tot=              2.5715
 Quadrupole moment (field-independent basis, Debye-Ang):
   XX=            -58.6803   YY=            -77.2428   ZZ=            -96.4815
   XY=              0.0040   XZ=              6.6611   YZ=             -0.0009

  Exact polarizability: 376.463  -0.002 161.031  -0.259   0.001  89.493
 Approx polarizability: 532.566  -0.007 271.718  -1.751   0.001 131.268

                      1                      2                      3
                      A                      A                      A
 Frequencies --     22.5113                39.9473                42.5714
 Red. masses --      3.5536                 4.9756                 5.6340
 Frc consts  --      0.0011                 0.0047                 0.0060
 IR Inten    --      0.2194                 1.0651                 2.2190

                      4                      5                      6
                      A                      A                      A
 Frequencies --    115.2792               139.1126               224.6364
 Red. masses --      5.0962                 5.2299                 5.1742
 Frc consts  --      0.0399                 0.0596                 0.1538
 IR Inten    --      0.4093                 0.0231                 1.6648

                      7                      8                      9
                      A                      A                      A
 Frequencies --    243.2632               305.7212               343.4282
 Red. masses --      6.5562                 1.0336                 5.2228
 Frc consts  --      0.2286                 0.0569                 0.3629
 IR Inten    --      0.2151                19.1437                 4.8276

                     10                     11                     12
                      A                      A                      A
 Frequencies --    377.9455               412.1962               416.5380
 Red. masses --      3.4850                 2.9334                 3.0229
 Frc consts  --      0.2933                 0.2937                 0.3090
 IR Inten    --      0.0039                 0.0112                 0.1248

                     13                     14                     15
                      A                      A                      A
 Frequencies --    457.3848               483.9318               507.5401
 Red. masses --      4.2105                 5.7784                 7.3762
 Frc consts  --      0.5190                 0.7973                 1.1195
 IR Inten    --     22.5903                 1.7285                78.9502

                     16                     17                     18
                      A                      A                      A
 Frequencies --    530.4801               548.2675               554.4882
 Red. masses --      2.2624                 7.8097                 3.5455
 Frc consts  --      0.3751                 1.3832                 0.6423
 IR Inten    --    113.9758                 0.0032                30.1561

                     19                     20                     21
                      A                      A                      A
 Frequencies --    567.7256               634.9004               660.2041
 Red. masses --      1.5709                 6.5940                 7.0259
 Frc consts  --      0.2983                 1.5661                 1.8043
 IR Inten    --    335.7780                 0.0001                 0.4105

                     22                     23                     24
                      A                      A                      A
 Frequencies --    680.1499               699.5118               719.9572
 Red. masses --      5.5276                 2.0123                 3.9017
 Frc consts  --      1.5066                 0.5801                 1.1916
 IR Inten    --      4.6381                32.6447                 3.8634

                     25                     26                     27
                      A                      A                      A
 Frequencies --    765.9393               819.6537               821.6956
 Red. masses --      1.7310                 4.4455                 1.2582
 Frc consts  --      0.5983                 1.7597                 0.5005
 IR Inten    --     49.6177                 4.3253                 0.0581

                     28                     29                     30
                      A                      A                      A
 Frequencies --    838.4797               851.5439               866.6132
 Red. masses --      1.8363                 1.2487                 6.2185
 Frc consts  --      0.7607                 0.5335                 2.7516
 IR Inten    --     68.3957                 0.0000                 0.2790

                     31                     32                     33
                      A                      A                      A
 Frequencies --    923.6475               954.1421               959.6319
 Red. masses --      1.4110                 1.3144                 1.3371
 Frc consts  --      0.7093                 0.7050                 0.7255
 IR Inten    --      3.4686                 0.3495                 0.0001

                     34                     35                     36
                      A                      A                      A
 Frequencies --    977.1013               998.4704              1011.6568
 Red. masses --      1.3620                 1.2759                 6.2552
 Frc consts  --      0.7661                 0.7494                 3.7719
 IR Inten    --      0.0000                 0.0430                 0.7843

                     37                     38                     39
                      A                      A                      A
 Frequencies --   1029.9693              1051.8739              1091.7188
 Red. masses --      2.8093                 2.2553                 1.4788
 Frc consts  --      1.7559                 1.4702                 1.0385
 IR Inten    --      0.0903                 5.8688                 1.4860

                     40                     41                     42
                      A                      A                      A
 Frequencies --   1108.3865              1163.9618              1168.0022
 Red. masses --      1.6238                 3.4418                 1.2231
 Frc consts  --      1.1754                 2.7473                 0.9831
 IR Inten    --      5.7349                23.6554                 7.4893

                     43                     44                     45
                      A                      A                      A
 Frequencies --   1198.8333              1216.2760              1223.7559
 Red. masses --      1.1067                 1.1455                 1.1632
 Frc consts  --      0.9371                 0.9984                 1.0263
 IR Inten    --      0.0078                 0.3846                36.8685

                     46                     47                     48
                      A                      A                      A
 Frequencies --   1315.4189              1323.1474              1327.1888
 Red. masses --      2.9610                 2.9744                 2.7853
 Frc consts  --      3.0187                 3.0681                 2.8906
 IR Inten    --    157.4112                 1.0980                 2.6551

                     49                     50                     51
                      A                      A                      A
 Frequencies --   1353.4163              1363.5626              1369.5098
 Red. masses --      4.3039                 1.6920                 1.8894
 Frc consts  --      4.6449                 1.8535                 2.0879
 IR Inten    --      2.1255                 0.1960                 1.1748

                     52                     53                     54
                      A                      A                      A
 Frequencies --   1474.8005              1481.2164              1531.5670
 Red. masses --      2.7843                 2.2124                 2.1902
 Frc consts  --      3.5680                 2.8600                 3.0270
 IR Inten    --      0.0218                 3.0880                 1.6214

                     55                     56                     57
                      A                      A                      A
 Frequencies --   1561.0049              1607.0903              1615.0626
 Red. masses --      2.7635                 5.7596                 4.9730
 Frc consts  --      3.9675                 8.7644                 7.6427
 IR Inten    --    170.2835                 1.8023                 1.4078

                     58                     59                     60
                      A                      A                      A
 Frequencies --   1646.9541              1664.4153              1697.7019
 Red. masses --      5.2166                 4.6707                 1.1848
 Frc consts  --      8.3368                 7.6236                 2.0119
 IR Inten    --    117.2713                88.4019               150.8124

                     61                     62                     63
                      A                      A                      A
 Frequencies --   2300.2199              3171.6641              3172.1579
 Red. masses --     11.9962                 1.0889                 1.0886
 Frc consts  --     37.3967                 6.4540                 6.4537
 IR Inten    --     75.3859                11.3261                40.2707

                     64                     65                     66
                      A                      A                      A
 Frequencies --   3177.1230              3185.4135              3197.9980
 Red. masses --      1.0854                 1.0885                 1.0919
 Frc consts  --      6.4549                 6.5075                 6.5793
 IR Inten    --      3.2927                 6.8189                23.5157

                     67                     68                     69
                      A                      A                      A
 Frequencies --   3203.1741              3204.8257              3205.0030
 Red. masses --      1.0930                 1.0938                 1.0941
 Frc consts  --      6.6075                 6.6190                 6.6213
 IR Inten    --     15.9828                 0.2562                30.4871

                     70                     71                     72
                      A                      A                      A
 Frequencies --   3209.9181              3556.4215              3655.6228
 Red. masses --      1.0974                 1.0480                 1.0992
 Frc consts  --      6.6617                 7.8097                 8.6548
 IR Inten    --     13.9107                38.3490                15.5839

 - Thermochemistry -
 -------------------
 Temperature   298.150 Kelvin.  Pressure   1.00000 Atm.
 Atom     1 has atomic number  6 and mass  12.00000

 Molecular mass:   193.08915 amu.
 Principal axes and moments of inertia in atomic units:
                           1         2         3
     Eigenvalues --   641.468429296.665939936.73641
           X            1.00000   0.00000   0.00122
           Y            0.00000   1.00000   0.00000
           Z           -0.00122   0.00000   1.00000
 This molecule is an asymmetric top.
 Rotational symmetry number  1.
 Warning -- assumption of classical behavior for rotation
           may cause significant error
 Rotational temperatures (Kelvin)      0.13502     0.00932     0.00872
 Rotational constants (GHZ):           2.81345     0.19413     0.18162
 Zero-point vibrational energy     546338.4 (Joules/Mol)
                                  130.57801 (Kcal/Mol)
 Warning -- explicit consideration of  19 degrees of freedom as
           vibrations may cause significant error
 Vibrational temperatures:     32.39    57.48    61.25   165.86   200.15
          (Kelvin)            323.20   350.00   439.86   494.12   543.78
                              593.06   599.31   658.07   696.27   730.24
                              763.24   788.83   797.78   816.83   913.48
                              949.89   978.58  1006.44  1035.86  1102.02
                             1179.30  1182.24  1206.39  1225.18  1246.86
                             1328.92  1372.80  1380.70  1405.83  1436.58
                             1455.55  1481.90  1513.41  1570.74  1594.72
                             1674.68  1680.49  1724.85  1749.95  1760.71
                             1892.59  1903.71  1909.53  1947.26  1961.86
                             1970.42  2121.91  2131.14  2203.58  2245.94
                             2312.24  2323.71  2369.60  2394.72  2442.61
                             3309.50  4563.32  4564.03  4571.17  4583.10
                             4601.21  4608.65  4611.03  4611.28  4618.36
                             5116.90  5259.63

 Zero-point correction=                           0.208089 (Hartree/Particle)
 Thermal correction to Energy=                    0.220661
 Thermal correction to Enthalpy=                  0.221605
 Thermal correction to Gibbs Free Energy=         0.167199
 Sum of electronic and zero-point Energies=           -594.649756
 Sum of electronic and thermal Energies=              -594.637184
 Sum of electronic and thermal Enthalpies=            -594.636240
 Sum of electronic and thermal Free Energies=         -594.690645

                     E (Thermal)             CV                S
                      KCal/Mol        Cal/Mol-Kelvin    Cal/Mol-Kelvin
 Total                  138.467             49.445            114.506
 Electronic               0.000              0.000              0.000
 Translational            0.889              2.981             41.679
 Rotational               0.889              2.981             32.449
 Vibrational            136.689             43.483             40.377
 Vibration     1          0.593              1.985              6.399
 Vibration     2          0.594              1.981              5.262
 Vibration     3          0.595              1.980              5.136
 Vibration     4          0.608              1.937              3.178
 Vibration     5          0.615              1.914              2.816
 Vibration     6          0.649              1.804              1.921
 Vibration     7          0.659              1.774              1.779
 Vibration     8          0.696              1.663              1.385
 Vibration     9          0.722              1.589              1.196
 Vibration    10          0.748              1.517              1.047
 Vibration    11          0.776              1.444              0.919
 Vibration    12          0.780              1.434              0.904
 Vibration    13          0.816              1.345              0.774
 Vibration    14          0.840              1.286              0.700
 Vibration    15          0.863              1.233              0.640
 Vibration    16          0.885              1.183              0.586
 Vibration    17          0.904              1.143              0.548
 Vibration    18          0.910              1.130              0.535
 Vibration    19          0.924              1.101              0.509

                           ! Non-Optimized Parameters !
 Normal termination of Gaussian 16 at Sun Sep 17 16:31:14 2023.
