 Gaussian 16, Revision B.01,
 Gaussian 16:  EM64L-G16RevB.01 20-Dec-2017

 ---------------------------------------------------------
 # opt freq b3lyp/6-31+g(d) empiricaldispersion=gd3 volume
 ---------------------------------------------------------

 -------------------
 Title Card Required
 -------------------
 Symbolic Z-matrix:
 Charge =  0 Multiplicity = 1

 SCF Done:  E(RB3LYP) =  -731.478204037     A.U. after   15 cycles
 SCF Done:  E(RB3LYP) =  -731.478203505     A.U. after   11 cycles
 SCF Done:  E(RB3LYP) =  -731.478204434     A.U. after   11 cycles
 Optimization completed.
    -- Stationary point found.
 Normal termination of Gaussian 16 at Sun Sep 17 16:33:16 2023.

 ---------------------------------------------------------------------
 #N Geom=AllCheck Guess=TCheck SCRF=Check GenChk RB3LYP/6-31+G(d) Freq
 ---------------------------------------------------------------------

 Structure from the checkpoint file:  "molecule_14.chk"
 -------------------
 Title Card Required
 -------------------
 Charge =  0 Multiplicity = 1

                         Standard orientation:
 ---------------------------------------------------------------------
 Center     Atomic      Atomic             Coordinates (Angstroms)
 Number     Number       Type             X           Y           Z
 ---------------------------------------------------------------------
      1          6           0       -4.941269    1.219936   -0.000454
      2          6           0       -3.550219    1.218221   -0.000185
      3          6           0       -2.836676    0.000534   -0.000131
      4          6           0       -3.565977   -1.204643   -0.000472
      5          6           0       -4.959887   -1.186756   -0.000756
      6          6           0       -5.673114    0.020430   -0.000576
      7          1           0       -5.472921    2.169463   -0.000736
      8          1           0       -3.000977    2.155381   -0.000250
      9          1           0       -3.031033   -2.149966   -0.000760
     10          1           0       -5.503266   -2.129049   -0.001227
     11          6           0       -1.412793   -0.008944   -0.000062
     12          6           0       -0.194904   -0.016795    0.000003
     13          6           0        1.227293   -0.030739    0.000009
     14          6           0        1.958521    1.175588   -0.000165
     15          6           0        1.936049   -1.253729    0.000229
     16          6           0        3.349898    1.156495   -0.000129
     17          1           0        1.423650    2.120625   -0.000327
     18          6           0        3.323896   -1.262829    0.000234
     19          1           0        1.380851   -2.187053    0.000377
     20          6           0        4.053910   -0.060224    0.000055
     21          1           0        3.884144    2.101549   -0.000284
     22          1           0        3.871887   -2.199907    0.000372
     23          6           0        5.549743   -0.127017    0.000045
     24          8           0        6.128573   -1.206716   -0.000083
     25          6           0        6.342763    1.169494    0.000119
     26          1           0        6.106728    1.774173   -0.884319
     27          1           0        6.106156    1.774574    0.884117
     28          1           0        7.407911    0.930127    0.000483
     29          6           0       -7.183378    0.044700    0.001504
     30          1           0       -7.572151    0.588955   -0.868558
     31          1           0       -7.569750    0.548949    0.896590
     32          1           0       -7.602949   -0.966422   -0.020431
 ---------------------------------------------------------------------

 SCF Done:  E(RB3LYP) =  -731.478204434     A.U. after    1 cycles

 The electronic state is 1-A.
 Alpha  occ. eigenvalues --  -19.14761 -10.28592 -10.23707 -10.22775 -10.21733
 Alpha  occ. eigenvalues --  -10.21668 -10.21394 -10.21369 -10.21182 -10.21057
 Alpha  occ. eigenvalues --  -10.21015 -10.20882 -10.20671 -10.20527 -10.20508
 Alpha  occ. eigenvalues --  -10.20306 -10.19793 -10.19659  -1.04453  -0.88092
 Alpha  occ. eigenvalues --   -0.87658  -0.81305  -0.79736  -0.76840  -0.76160
 Alpha  occ. eigenvalues --   -0.75535  -0.73701  -0.70169  -0.65325  -0.62523
 Alpha  occ. eigenvalues --   -0.62346  -0.60968  -0.56445  -0.55834  -0.53373
 Alpha  occ. eigenvalues --   -0.48710  -0.48142  -0.47816  -0.47533  -0.46115
 Alpha  occ. eigenvalues --   -0.45072  -0.44039  -0.43995  -0.43557  -0.43365
 Alpha  occ. eigenvalues --   -0.42480  -0.40922  -0.40177  -0.39872  -0.38256
 Alpha  occ. eigenvalues --   -0.38253  -0.36751  -0.36606  -0.36273  -0.35711
 Alpha  occ. eigenvalues --   -0.32354  -0.28281  -0.27911  -0.27271  -0.26836
 Alpha  occ. eigenvalues --   -0.25930  -0.22437
 Alpha virt. eigenvalues --   -0.08351  -0.03477  -0.02615  -0.02382  -0.00271
 Alpha virt. eigenvalues --    0.00285   0.01255   0.01453   0.01691   0.02732
 Alpha virt. eigenvalues --    0.02927   0.03579   0.04287   0.04382   0.04394

 Mulliken charges:
               1
     1  C   -0.157923
     2  C    0.218152
     3  C   -0.020706
     4  C   -0.245634
     5  C   -0.767332
     6  C    0.360481
     7  H    0.180216
     8  H    0.192944
     9  H    0.194467
    10  H    0.178814
    11  C   -0.028626
    12  C   -0.029892
    13  C    0.019933
    14  C   -0.632629
    15  C   -0.279155
    16  C   -0.885545
    17  H    0.195453
    18  C    0.126990
    19  H    0.197948
    20  C    0.796889
    21  H    0.185587
    22  H    0.223047
    23  C    0.673400
    24  O   -0.440727
    25  C   -0.891053
    26  H    0.227644
    27  H    0.227620
    28  H    0.242158
    29  C   -0.721609
    30  H    0.225359
    31  H    0.226501
    32  H    0.207229
 Sum of Mulliken charges =   0.00000

 Dipole moment (field-independent basis, Debye):
    X=             -3.8167    Y=              2.5220    Z=              0.0031  Tot=              4.5747
 Quadrupole moment (field-independent basis, Debye-Ang):
   XX=           -103.0721   YY=            -97.9106   ZZ=           -111.2396
   XY=             16.1491   XZ=             -0.0195   YZ=             -0.0008

  Exact polarizability: 457.802  -3.768 186.390  -0.051   0.001 106.425
 Approx polarizability: 606.168 -17.615 321.499  -0.060   0.001 160.292

 ******    1 imaginary frequencies (negative Signs) ******

                      1                      2                      3
                      A                      A                      A
 Frequencies --    -21.8508                21.3506                28.5702
 Red. masses --      1.0467                 3.5838                 5.5587
 Frc consts  --      0.0003                 0.0010                 0.0027
 IR Inten    --      0.1787                 0.9945                 0.0228

                      4                      5                      6
                      A                      A                      A
 Frequencies --     30.0589                61.5601                78.3121
 Red. masses --      5.1535                 3.8811                 5.2182
 Frc consts  --      0.0027                 0.0087                 0.0189
 IR Inten    --      0.2510                 2.9225                 1.5657

                      7                      8                      9
                      A                      A                      A
 Frequencies --    117.6428               157.4164               183.5630
 Red. masses --      5.5079                 5.2723                 1.0354
 Frc consts  --      0.0449                 0.0770                 0.0206
 IR Inten    --      0.9771                 0.3992                 0.1438

                     10                     11                     12
                      A                      A                      A
 Frequencies --    201.8744               229.2985               241.7926
 Red. masses --      6.1530                 4.7018                 4.8327
 Frc consts  --      0.1477                 0.1457                 0.1665
 IR Inten    --      0.3662                 6.4028                 0.3971

                     13                     14                     15
                      A                      A                      A
 Frequencies --    340.5685               347.1702               387.8986
 Red. masses --      2.8457                 5.2493                 4.6766
 Frc consts  --      0.1945                 0.3728                 0.4146
 IR Inten    --      0.0199                 2.4186                 3.3590

                     16                     17                     18
                      A                      A                      A
 Frequencies --    413.6251               414.7711               438.3221
 Red. masses --      2.9407                 2.9348                 4.2543
 Frc consts  --      0.2964                 0.2975                 0.4816
 IR Inten    --      0.0078                 0.0039                 1.2548

                     19                     20                     21
                      A                      A                      A
 Frequencies --    448.8655               494.2593               521.2710
 Red. masses --      5.6565                 5.1068                 3.1356
 Frc consts  --      0.6715                 0.7350                 0.5020
 IR Inten    --      8.1330                 0.4373                13.7692

                     22                     23                     24
                      A                      A                      A
 Frequencies --    541.1774               555.3826               557.7160
 Red. masses --      6.9568                 3.8562                 6.4465
 Frc consts  --      1.2004                 0.7008                 1.1814
 IR Inten    --      1.4047                 5.3589                 1.3404

                     25                     26                     27
                      A                      A                      A
 Frequencies --    603.0403               624.9730               652.0748
 Red. masses --      2.3068                 4.2847                 7.2382
 Frc consts  --      0.4943                 0.9860                 1.8133
 IR Inten    --     15.0094                26.7501                 0.4936

                     28                     29                     30
                      A                      A                      A
 Frequencies --    659.3201               717.8724               728.4117
 Red. masses --      7.1089                 3.3491                 5.0074
 Frc consts  --      1.8207                 1.0169                 1.5654
 IR Inten    --      0.2771                 1.2344                13.2648

                     31                     32                     33
                      A                      A                      A
 Frequencies --    735.8076               805.2468               832.0866
 Red. masses --      3.9053                 5.3769                 1.4603
 Frc consts  --      1.2458                 2.0542                 0.5957
 IR Inten    --      0.0911                 0.1126                38.8912

                     34                     35                     36
                      A                      A                      A
 Frequencies --    844.3324               848.1422               861.8377
 Red. masses --      1.3648                 1.2513                 1.3974
 Frc consts  --      0.5733                 0.5303                 0.6115
 IR Inten    --     27.8190                 0.2824                31.4534

                     37                     38                     39
                      A                      A                      A
 Frequencies --    868.6545               967.8334               968.3752
 Red. masses --      6.3826                 1.2964                 2.2592
 Frc consts  --      2.8375                 0.7155                 1.2482
 IR Inten    --      0.1934                 0.4162                74.7483

                     40                     41                     42
                      A                      A                      A
 Frequencies --    974.5035               976.7361              1000.9348
 Red. masses --      1.3248                 1.3560                 1.3344
 Frc consts  --      0.7413                 0.7622                 0.7877
 IR Inten    --      0.0003                 0.0120                 0.4258

                     43                     44                     45
                      A                      A                      A
 Frequencies --   1019.0936              1033.8528              1038.8925
 Red. masses --      1.4186                 3.0265                 2.8670
 Frc consts  --      0.8680                 1.9060                 1.8231
 IR Inten    --      7.6690                 1.4220                 4.6658

                     46                     47                     48
                      A                      A                      A
 Frequencies --   1053.0668              1071.7559              1096.7500
 Red. masses --      1.8462                 1.5232                 2.4750
 Frc consts  --      1.2063                 1.0308                 1.7540
 IR Inten    --      0.7020                 4.0247                 3.5612

                     49                     50                     51
                      A                      A                      A
 Frequencies --   1153.6734              1155.5625              1163.6321
 Red. masses --      1.3576                 1.3970                 3.5212
 Frc consts  --      1.0646                 1.0991                 2.8091
 IR Inten    --      4.7918                 6.6093                30.3977

                     52                     53                     54
                      A                      A                      A
 Frequencies --   1224.4906              1227.1858              1237.5782
 Red. masses --      1.1391                 1.2122                 3.0014
 Frc consts  --      1.0063                 1.0756                 2.7084
 IR Inten    --      7.4673                52.7066                 3.7954

                     55                     56                     57
                      A                      A                      A
 Frequencies --   1287.1211              1324.9751              1331.2146
 Red. masses --      3.5254                 4.0706                 3.7093
 Frc consts  --      3.4411                 4.2104                 3.8729
 IR Inten    --    387.5632                 0.0840                10.8949

                     58                     59                     60
                      A                      A                      A
 Frequencies --   1346.8937              1348.9180              1354.6002
 Red. masses --      1.7519                 1.5213                 3.6232
 Frc consts  --      1.8725                 1.6310                 3.9171
 IR Inten    --      8.0052                 1.9867                12.7361

                     61                     62                     63
                      A                      A                      A
 Frequencies --   1408.1669              1438.9675              1447.5584
 Red. masses --      1.3199                 1.2354                 2.5675
 Frc consts  --      1.5420                 1.5071                 3.1698
 IR Inten    --     48.1046                 0.3436                 2.5570

                     64                     65                     66
                      A                      A                      A
 Frequencies --   1449.5649              1495.9879              1503.3808
 Red. masses --      2.6728                 1.0651                 1.0472
 Frc consts  --      3.3089                 1.4044                 1.3945
 IR Inten    --     30.5372                15.1335                12.0735

                     67                     68                     69
                      A                      A                      A
 Frequencies --   1507.7185              1514.3141              1540.9151
 Red. masses --      1.0436                 1.1159                 2.2648
 Frc consts  --      1.3977                 1.5076                 3.1684
 IR Inten    --      7.3616                10.2300                10.7004

                     70                     71                     72
                      A                      A                      A
 Frequencies --   1560.8289              1590.1611              1601.0685
 Red. masses --      2.7340                 5.8288                 5.0596
 Frc consts  --      3.9242                 8.6839                 7.6416
 IR Inten    --     17.3335                27.6645                 2.0548

                     73                     74                     75
                      A                      A                      A
 Frequencies --   1648.4590              1661.8928              1748.0949
 Red. masses --      5.2988                 5.5861                10.4340
 Frc consts  --      8.4837                 9.0900                18.7859
 IR Inten    --    268.6682                11.6476               296.0142

                     76                     77                     78
                      A                      A                      A
 Frequencies --   2301.1666              3036.9224              3046.7582
 Red. masses --     11.9971                 1.0373                 1.0383
 Frc consts  --     37.4303                 5.6366                 5.6785
 IR Inten    --     93.2615                48.6493                 3.6273

                     79                     80                     81
                      A                      A                      A
 Frequencies --   3087.7473              3105.6288              3117.5500
 Red. masses --      1.1007                 1.0999                 1.1010
 Frc consts  --      6.1830                 6.2502                 6.3047
 IR Inten    --     15.2245                 8.8323                19.1652

                     82                     83                     84
                      A                      A                      A
 Frequencies --   3161.6582              3173.2800              3178.3366
 Red. masses --      1.1012                 1.0888                 1.0887
 Frc consts  --      6.4855                 6.4595                 6.4798
 IR Inten    --     17.1592                19.9052                22.9589

                     85                     86                     87
                      A                      A                      A
 Frequencies --   3198.1613              3201.7798              3203.9626
 Red. masses --      1.0878                 1.0891                 1.0932
 Frc consts  --      6.5554                 6.5778                 6.6122
 IR Inten    --      6.7757                 3.2995                17.6426

                     88                     89                     90
                      A                      A                      A
 Frequencies --   3206.1003              3215.1863              3220.9884
 Red. masses --      1.0941                 1.0940                 1.0939
 Frc consts  --      6.6260                 6.6630                 6.6866
 IR Inten    --      2.5839                12.5280                 2.1297

 - Thermochemistry -
 -------------------
 Temperature   298.150 Kelvin.  Pressure   1.00000 Atm.
 Atom     1 has atomic number  6 and mass  12.00000

 Molecular mass:   234.10447 amu.
 Principal axes and moments of inertia in atomic units:
                           1         2         3
     Eigenvalues --   820.07017********************
           X            0.99998   0.00623   0.00000
           Y           -0.00623   0.99998   0.00000
           Z            0.00000   0.00000   1.00000
 This molecule is an asymmetric top.
 Rotational symmetry number  1.
 Warning -- assumption of classical behavior for rotation
           may cause significant error
 Rotational temperatures (Kelvin)      0.10562     0.00543     0.00517
 Rotational constants (GHZ):           2.20072     0.11317     0.10778
    1 imaginary frequencies ignored.
 Zero-point vibrational energy     673044.3 (Joules/Mol)
                                  160.86144 (Kcal/Mol)
 Warning -- explicit consideration of  24 degrees of freedom as
           vibrations may cause significant error
 Vibrational temperatures:     30.72    41.11    43.25    88.57   112.67
          (Kelvin)            169.26   226.49   264.11   290.45   329.91
                              347.89   490.00   499.50   558.10   595.11
                              596.76   630.65   645.82   711.13   749.99
                              778.63   799.07   802.43   867.64   899.20
                              938.19   948.61  1032.86  1048.02  1058.66
                             1158.57  1197.19  1214.81  1220.29  1239.99
                             1249.80  1392.50  1393.28  1402.09  1405.31
                             1440.12  1466.25  1487.48  1494.73  1515.13
                             1542.02  1577.98  1659.88  1662.60  1674.21
                             1761.77  1765.65  1780.60  1851.88  1906.34
                             1915.32  1937.88  1940.79  1948.97  2026.04
                             2070.35  2082.71  2085.60  2152.39  2163.03
                             2169.27  2178.76  2217.03  2245.68  2287.89
                             2303.58  2371.76  2391.09  2515.12  3310.87
                             4369.45  4383.61  4442.58  4468.31  4485.46
                             4548.92  4565.64  4572.92  4601.44  4606.65
                             4609.79  4612.86  4625.94  4634.28

 Zero-point correction=                           0.256349 (Hartree/Particle)
 Thermal correction to Energy=                    0.271995
 Thermal correction to Enthalpy=                  0.272939
 Thermal correction to Gibbs Free Energy=         0.210630
 Sum of electronic and zero-point Energies=           -731.221855
 Sum of electronic and thermal Energies=              -731.206209
 Sum of electronic and thermal Enthalpies=            -731.205265
 Sum of electronic and thermal Free Energies=         -731.267574

                     E (Thermal)             CV                S
                      KCal/Mol        Cal/Mol-Kelvin    Cal/Mol-Kelvin
 Total                  170.680             59.836            131.141
 Electronic               0.000              0.000              0.000
 Translational            0.889              2.981             42.253
 Rotational               0.889              2.981             33.748
 Vibrational            168.902             53.875             55.140
 Vibration     1          0.593              1.985              6.504
 Vibration     2          0.593              1.984              5.926
 Vibration     3          0.594              1.984              5.826
 Vibration     4          0.597              1.973              4.407
 Vibration     5          0.600              1.964              3.933
 Vibration     6          0.608              1.935              3.139
 Vibration     7          0.621              1.894              2.581
 Vibration     8          0.631              1.862              2.292
 Vibration     9          0.639              1.837              2.116
 Vibration    10          0.652              1.796              1.884
 Vibration    11          0.658              1.776              1.790
 Vibration    12          0.720              1.594              1.209
 Vibration    13          0.725              1.581              1.179
 Vibration    14          0.756              1.496              1.008
 Vibration    15          0.777              1.441              0.914
 Vibration    16          0.778              1.438              0.910
 Vibration    17          0.798              1.387              0.832
 Vibration    18          0.808              1.363              0.799
 Vibration    19          0.850              1.263              0.673
 Vibration    20          0.876              1.203              0.607
 Vibration    21          0.896              1.159              0.563
 Vibration    22          0.911              1.128              0.533
 Vibration    23          0.913              1.123              0.528
 Vibration    24          0.961              1.025              0.444

                           ! Non-Optimized Parameters !
 Normal termination of Gaussian 16 at Sun Sep 17 16:39:15 2023.
