 Gaussian 16, Revision B.01,
 Gaussian 16:  EM64L-G16RevB.01 20-Dec-2017

 ---------------------------------------------------------
 # opt freq b3lyp/6-31+g(d) empiricaldispersion=gd3 volume
 ---------------------------------------------------------

 -------------------
 Title Card Required
 -------------------
 Symbolic Z-matrix:
 Charge =  0 Multiplicity = 1

 SCF Done:  E(RB3LYP) =  -999.077739138     A.U. after   15 cycles
 SCF Done:  E(RB3LYP) =  -999.093364900     A.U. after   15 cycles
 SCF Done:  E(RB3LYP) =  -999.086201867     A.U. after   16 cycles
 SCF Done:  E(RB3LYP) =  -999.093307226     A.U. after   13 cycles
 SCF Done:  E(RB3LYP) =  -999.094205817     A.U. after   10 cycles
 SCF Done:  E(RB3LYP) =  -999.094120378     A.U. after   14 cycles
 SCF Done:  E(RB3LYP) =  -999.094007221     A.U. after   15 cycles
 SCF Done:  E(RB3LYP) =  -999.094456277     A.U. after   13 cycles
 SCF Done:  E(RB3LYP) =  -999.094501681     A.U. after   15 cycles
 SCF Done:  E(RB3LYP) =  -999.094509166     A.U. after   12 cycles
 SCF Done:  E(RB3LYP) =  -999.094509505     A.U. after   10 cycles
 Optimization completed.
    -- Stationary point found.
 Normal termination of Gaussian 16 at Sat Sep 16 13:28:41 2023.

 ---------------------------------------------------------------------
 #N Geom=AllCheck Guess=TCheck SCRF=Check GenChk RB3LYP/6-31+G(d) Freq
 ---------------------------------------------------------------------

 Structure from the checkpoint file:  "molecule_69.chk"
 -------------------
 Title Card Required
 -------------------
 Charge =  0 Multiplicity = 1

                         Standard orientation:
 ---------------------------------------------------------------------
 Center     Atomic      Atomic             Coordinates (Angstroms)
 Number     Number       Type             X           Y           Z
 ---------------------------------------------------------------------
      1          6           0        3.482210   -0.286475   -0.000099
      2          6           0        2.108259   -0.508142   -0.000167
      3          6           0        1.228689    0.593860    0.000097
      4          6           0        1.760752    1.899818    0.000544
      5          6           0        3.140609    2.093184    0.000624
      6          6           0        4.016822    1.003544    0.000288
      7          1           0        1.714998   -1.518702   -0.000432
      8          1           0        1.084441    2.748848    0.000809
      9          1           0        3.544424    3.101987    0.000952
     10          1           0        5.092096    1.148186    0.000386
     11          6           0       -0.180303    0.382386   -0.000010
     12          6           0       -1.384060    0.203093    0.000042
     13          6           0       -2.793503   -0.009316    0.000006
     14          6           0       -3.320091   -1.317836    0.000837
     15          6           0       -3.682935    1.085422   -0.000872
     16          6           0       -4.699187   -1.521045    0.000812
     17          1           0       -2.638803   -2.163701    0.001544
     18          6           0       -5.060589    0.872522   -0.000899
     19          1           0       -3.281716    2.094729   -0.001491
     20          6           0       -5.573957   -0.429058   -0.000068
     21          1           0       -5.092780   -2.534205    0.001478
     22          1           0       -5.735840    1.724270   -0.001573
     23          1           0       -6.648582   -0.591317   -0.000104
     24         17           0        4.570910   -1.669520   -0.000493
 ---------------------------------------------------------------------

 SCF Done:  E(RB3LYP) =  -999.094509505     A.U. after    1 cycles

 The electronic state is 1-A.
 Alpha  occ. eigenvalues -- -101.55903 -10.26670 -10.23817 -10.23014 -10.21874
 Alpha  occ. eigenvalues --  -10.21756 -10.21660 -10.21442 -10.21045 -10.21029
 Alpha  occ. eigenvalues --  -10.20884 -10.20807 -10.20786 -10.20619 -10.20369
 Alpha  occ. eigenvalues --   -9.47416  -7.23824  -7.22849  -7.22821  -0.90335
 Alpha  occ. eigenvalues --   -0.87464  -0.85352  -0.80285  -0.78206  -0.76206
 Alpha  occ. eigenvalues --   -0.75152  -0.72935  -0.65395  -0.62656  -0.62098
 Alpha  occ. eigenvalues --   -0.61690  -0.55503  -0.54001  -0.50456  -0.49037
 Alpha  occ. eigenvalues --   -0.48706  -0.46799  -0.45610  -0.44703  -0.44355
 Alpha  occ. eigenvalues --   -0.43704  -0.41156  -0.39126  -0.38796  -0.37859
 Alpha  occ. eigenvalues --   -0.37217  -0.36310  -0.35543  -0.32333  -0.32202
 Alpha  occ. eigenvalues --   -0.28538  -0.28352  -0.26852  -0.26169  -0.22738
 Alpha virt. eigenvalues --   -0.06742  -0.03056  -0.02344  -0.01471  -0.00396
 Alpha virt. eigenvalues --    0.00358   0.01046   0.01788   0.02163   0.02658
 Alpha virt. eigenvalues --    0.03715   0.04085   0.04607   0.04685   0.05389

 Mulliken charges:
               1
     1  C    0.238533
     2  C   -0.255422
     3  C   -0.102471
     4  C   -0.181142
     5  C   -0.165248
     6  C   -0.511150
     7  H    0.211852
     8  H    0.196976
     9  H    0.190094
    10  H    0.203082
    11  C   -0.075219
    12  C   -0.135375
    13  C    0.412328
    14  C   -0.401608
    15  C   -0.347720
    16  C   -0.112396
    17  H    0.194980
    18  C   -0.124418
    19  H    0.193305
    20  C   -0.212782
    21  H    0.184237
    22  H    0.183767
    23  H    0.182717
    24  Cl   0.233080
 Sum of Mulliken charges =   0.00000

 Dipole moment (field-independent basis, Debye):
    X=             -1.6246    Y=              1.3643    Z=              0.0006  Tot=              2.1215
 Quadrupole moment (field-independent basis, Debye-Ang):
   XX=            -83.3344   YY=            -84.6332   ZZ=           -100.7962
   XY=              7.4769   XZ=              0.0034   YZ=             -0.0037

  Exact polarizability: 344.262   9.678 176.874   0.005  -0.010  88.746
 Approx polarizability: 483.153  16.786 294.257   0.008  -0.022 130.836

                      1                      2                      3
                      A                      A                      A
 Frequencies --     17.9007                35.9769                49.6914
 Red. masses --      4.2071                 6.5736                 5.5163
 Frc consts  --      0.0008                 0.0050                 0.0080
 IR Inten    --      0.0779                 0.2884                 1.0640

                      4                      5                      6
                      A                      A                      A
 Frequencies --    124.7980               139.0472               190.3885
 Red. masses --      6.4297                 5.1337                 5.0528
 Frc consts  --      0.0590                 0.0585                 0.1079
 IR Inten    --      0.1807                 0.0273                 0.0313

                      7                      8                      9
                      A                      A                      A
 Frequencies --    238.6710               295.2329               301.5743
 Red. masses --      6.7791                 5.2008                 7.3774
 Frc consts  --      0.2275                 0.2671                 0.3953
 IR Inten    --      0.0032                 0.1643                 0.5153

                     10                     11                     12
                      A                      A                      A
 Frequencies --    411.3534               412.2850               416.8009
 Red. masses --     11.5549                 2.9129                 4.1850
 Frc consts  --      1.1520                 0.2917                 0.4284
 IR Inten    --      4.3819                 0.0015                 0.0017

                     13                     14                     15
                      A                      A                      A
 Frequencies --    457.5955               488.9431               547.1597
 Red. masses --      3.5271                 6.6397                 8.0566
 Frc consts  --      0.4351                 0.9352                 1.4211
 IR Inten    --      5.6952                 1.6959                17.0562

                     16                     17                     18
                      A                      A                      A
 Frequencies --    554.3516               567.8705               595.2608
 Red. masses --      7.8607                 4.1154                 5.5396
 Frc consts  --      1.4233                 0.7819                 1.1565
 IR Inten    --      1.1575                 4.7585                 3.9274

                     19                     20                     21
                      A                      A                      A
 Frequencies --    634.9348               682.8205               692.7096
 Red. masses --      6.6111                 7.1472                 2.2678
 Frc consts  --      1.5703                 1.9633                 0.6412
 IR Inten    --      0.0111                 8.9169                16.9685

                     22                     23                     24
                      A                      A                      A
 Frequencies --    699.6804               756.3456               771.8738
 Red. masses --      1.9254                 6.9865                 1.8069
 Frc consts  --      0.5554                 2.3548                 0.6343
 IR Inten    --     36.0893                19.7976                48.0680

                     25                     26                     27
                      A                      A                      A
 Frequencies --    793.6934               853.1745               896.5184
 Red. masses --      1.4349                 1.2484                 6.3206
 Frc consts  --      0.5326                 0.5354                 2.9932
 IR Inten    --     40.0603                 0.0005                42.7405

                     28                     29                     30
                      A                      A                      A
 Frequencies --    897.0201               911.9306               930.3764
 Red. masses --      1.4304                 1.3875                 1.4108
 Frc consts  --      0.6781                 0.6799                 0.7195
 IR Inten    --     11.9598                 0.8074                 3.0439

                     31                     32                     33
                      A                      A                      A
 Frequencies --    979.7315               986.1371              1002.3824
 Red. masses --      1.3652                 1.3115                 1.2826
 Frc consts  --      0.7721                 0.7515                 0.7593
 IR Inten    --      0.0001                 0.1506                 0.0263

                     34                     35                     36
                      A                      A                      A
 Frequencies --   1010.0962              1012.8782              1052.2403
 Red. masses --      6.0973                 6.2535                 2.2543
 Frc consts  --      3.6653                 3.7800                 1.4706
 IR Inten    --      3.1810                 0.0274                 6.3556

                     37                     38                     39
                      A                      A                      A
 Frequencies --   1106.0373              1109.5612              1125.3019
 Red. masses --      2.2407                 1.6225                 1.6515
 Frc consts  --      1.6150                 1.1769                 1.2322
 IR Inten    --     29.3818                 5.8851                 9.6629

                     40                     41                     42
                      A                      A                      A
 Frequencies --   1170.4351              1200.3581              1209.0622
 Red. masses --      3.3402                 1.1088                 1.1266
 Frc consts  --      2.6960                 0.9413                 0.9703
 IR Inten    --      9.0702                 0.0087                 0.5811

                     43                     44                     45
                      A                      A                      A
 Frequencies --   1217.0446              1306.8279              1326.7309
 Red. masses --      1.1519                 2.1566                 3.2758
 Frc consts  --      1.0053                 2.1700                 3.3973
 IR Inten    --      0.6373                 0.3697                 0.0242

                     46                     47                     48
                      A                      A                      A
 Frequencies --   1341.1507              1354.0616              1364.1833
 Red. masses --      3.4899                 2.1945                 1.7000
 Frc consts  --      3.6985                 2.3707                 1.8640
 IR Inten    --      2.0624                 1.3683                 0.4701

                     49                     50                     51
                      A                      A                      A
 Frequencies --   1448.6768              1481.9313              1513.8763
 Red. masses --      3.0328                 2.1877                 2.2064
 Frc consts  --      3.7500                 2.8307                 2.9793
 IR Inten    --      8.7310                 4.5132                24.8975

                     52                     53                     54
                      A                      A                      A
 Frequencies --   1539.0212              1603.4545              1617.0302
 Red. masses --      2.4455                 5.1800                 4.9726
 Frc consts  --      3.4128                 7.8467                 7.6607
 IR Inten    --     36.2297                48.0406                 2.2758

                     55                     56                     57
                      A                      A                      A
 Frequencies --   1637.3271              1651.3575              2308.6374
 Red. masses --      5.6302                 5.4440                11.9974
 Frc consts  --      8.8930                 8.7468                37.6747
 IR Inten    --     48.2935                37.1715                 9.9281

                     58                     59                     60
                      A                      A                      A
 Frequencies --   3180.4471              3188.9215              3192.6426
 Red. masses --      1.0856                 1.0886                 1.0879
 Frc consts  --      6.4701                 6.5223                 6.5331
 IR Inten    --      2.0678                 5.2044                 9.3772

                     61                     62                     63
                      A                      A                      A
 Frequencies --   3200.2505              3207.4386              3212.2023
 Red. masses --      1.0920                 1.0943                 1.0975
 Frc consts  --      6.5891                 6.6327                 6.6721
 IR Inten    --     19.9451                23.3984                12.9436

                     64                     65                     66
                      A                      A                      A
 Frequencies --   3214.1191              3222.9444              3226.4704
 Red. masses --      1.0927                 1.0948                 1.0923
 Frc consts  --      6.6510                 6.7005                 6.6998
 IR Inten    --      6.4389                 4.9511                 0.0442

 - Thermochemistry -
 -------------------
 Temperature   298.150 Kelvin.  Pressure   1.00000 Atm.
 Atom     1 has atomic number  6 and mass  12.00000

 Molecular mass:   212.03928 amu.
 Principal axes and moments of inertia in atomic units:
                           1         2         3
     Eigenvalues --  1176.72846********************
           X            0.99993   0.01197   0.00000
           Y           -0.01197   0.99993  -0.00002
           Z            0.00000   0.00002   1.00000
 This molecule is an asymmetric top.
 Rotational symmetry number  1.
 Warning -- assumption of classical behavior for rotation
           may cause significant error
 Rotational temperatures (Kelvin)      0.07361     0.00861     0.00771
 Rotational constants (GHZ):           1.53369     0.17936     0.16058
 Zero-point vibrational energy     477830.1 (Joules/Mol)
                                  114.20413 (Kcal/Mol)
 Warning -- explicit consideration of  18 degrees of freedom as
           vibrations may cause significant error
 Vibrational temperatures:     25.76    51.76    71.49   179.56   200.06
          (Kelvin)            273.93   343.39   424.77   433.90   591.85
                              593.19   599.68   658.38   703.48   787.24
                              797.59   817.04   856.45   913.53   982.43
                              996.65  1006.68  1088.21  1110.55  1141.95
                             1227.53  1289.89  1290.61  1312.06  1338.60
                             1409.62  1418.83  1442.20  1453.30  1457.31
                             1513.94  1591.34  1596.41  1619.06  1684.00
                             1727.05  1739.57  1751.06  1880.23  1908.87
                             1929.62  1948.19  1962.76  2084.32  2132.17
                             2178.13  2214.31  2307.01  2326.55  2355.75
                             2375.94  3321.61  4575.95  4588.15  4593.50
                             4604.45  4614.79  4621.64  4624.40  4637.10
                             4642.17

 Zero-point correction=                           0.181996 (Hartree/Particle)
 Thermal correction to Energy=                    0.194261
 Thermal correction to Enthalpy=                  0.195206
 Thermal correction to Gibbs Free Energy=         0.140483
 Sum of electronic and zero-point Energies=           -998.912514
 Sum of electronic and thermal Energies=              -998.900248
 Sum of electronic and thermal Enthalpies=            -998.899304
 Sum of electronic and thermal Free Energies=         -998.954026

                     E (Thermal)             CV                S
                      KCal/Mol        Cal/Mol-Kelvin    Cal/Mol-Kelvin
 Total                  121.901             47.199            115.173
 Electronic               0.000              0.000              0.000
 Translational            0.889              2.981             41.958
 Rotational               0.889              2.981             33.253
 Vibrational            120.123             41.238             39.961
 Vibration     1          0.593              1.986              6.854
 Vibration     2          0.594              1.982              5.469
 Vibration     3          0.595              1.978              4.830
 Vibration     4          0.610              1.928              3.025
 Vibration     5          0.615              1.914              2.817
 Vibration     6          0.634              1.853              2.224
 Vibration     7          0.657              1.781              1.813
 Vibration     8          0.689              1.683              1.444
 Vibration     9          0.694              1.671              1.408
 Vibration    10          0.775              1.446              0.922
 Vibration    11          0.776              1.444              0.919
 Vibration    12          0.780              1.434              0.903
 Vibration    13          0.816              1.344              0.773
 Vibration    14          0.845              1.275              0.686
 Vibration    15          0.902              1.146              0.550
 Vibration    16          0.910              1.130              0.535
 Vibration    17          0.924              1.101              0.508
 Vibration    18          0.953              1.042              0.458

                           ! Non-Optimized Parameters !
 Normal termination of Gaussian 16 at Sat Sep 16 13:32:03 2023.
