 Gaussian 16, Revision B.01,
 Gaussian 16:  EM64L-G16RevB.01 20-Dec-2017

 ---------------------------------------------------------
 # opt freq b3lyp/6-31+g(d) empiricaldispersion=gd3 volume
 ---------------------------------------------------------

 --------------
 ML molecule123
 --------------
 Symbolic Z-matrix:
 Charge =  0 Multiplicity = 1

 SCF Done:  E(RB3LYP) =  -670.120135649     A.U. after   15 cycles
 Optimization completed.
    -- Stationary point found.
 Normal termination of Gaussian 16 at Sat Sep 23 00:52:40 2023.

 ---------------------------------------------------------------------
 #N Geom=AllCheck Guess=TCheck SCRF=Check GenChk RB3LYP/6-31+G(d) Freq
 ---------------------------------------------------------------------

 Structure from the checkpoint file:  "molecule_123.chk"
 --------------
 ML molecule123
 --------------
 Charge =  0 Multiplicity = 1

                         Standard orientation:
 ---------------------------------------------------------------------
 Center     Atomic      Atomic             Coordinates (Angstroms)
 Number     Number       Type             X           Y           Z
 ---------------------------------------------------------------------
      1          8           0       -0.395696   -1.282950   -0.755054
      2          6           0        0.812115   -0.724488   -0.430919
      3          6           0        1.928577   -1.266569   -1.084532
      4          6           0        0.965648    0.317113    0.493746
      5          6           0        3.196125   -0.768820   -0.816288
      6          6           0        2.239956    0.813189    0.759440
      7          1           0        0.101408    0.732777    0.999100
      8          6           0        3.365426    0.279151    0.110145
      9          1           0        4.062327   -1.185634   -1.320865
     10          1           0        2.365485    1.619682    1.475499
     11          1           0        1.778519   -2.073264   -1.794961
     12          6           0        4.672520    0.795148    0.387415
     13          7           0        5.735386    1.214609    0.612232
     14          6           0       -1.562134   -0.766093   -0.190601
     15          6           0       -2.200778    0.304257   -0.813588
     16          6           0       -2.086463   -1.367757    0.950736
     17          6           0       -3.401813    0.805007   -0.292782
     18          1           0       -1.753641    0.738866   -1.703824
     19          6           0       -3.282967   -0.870132    1.473922
     20          1           0       -1.562565   -2.201069    1.408548
     21          6           0       -3.930677    0.205542    0.860735
     22          1           0       -3.709762   -1.323066    2.364886
     23          1           0       -4.860096    0.583558    1.280346
     24          6           0       -4.123980    1.939534   -0.982525
     25          1           0       -4.708822    2.533059   -0.271444
     26          1           0       -3.424268    2.611050   -1.491990
     27          1           0       -4.820046    1.554875   -1.739915
 ---------------------------------------------------------------------

 SCF Done:  E(RB3LYP) =  -670.120135649     A.U. after    1 cycles

 The electronic state is 1-A.
 Alpha  occ. eigenvalues --  -19.21634 -14.34161 -10.28575 -10.27061 -10.24259
 Alpha  occ. eigenvalues --  -10.23439 -10.22996 -10.22903 -10.22498 -10.21906
 Alpha  occ. eigenvalues --  -10.21760 -10.21649 -10.21275 -10.21208 -10.20996
 Alpha  occ. eigenvalues --  -10.20289  -1.10486  -0.91234  -0.88818  -0.87596
 Alpha  occ. eigenvalues --   -0.80315  -0.78801  -0.78151  -0.75921  -0.70941
 Alpha  occ. eigenvalues --   -0.67367  -0.64780  -0.62529  -0.60596  -0.57311
 Alpha  occ. eigenvalues --   -0.55617  -0.51974  -0.51005  -0.50008  -0.47365
 Alpha  occ. eigenvalues --   -0.46144  -0.45439  -0.43986  -0.43583  -0.43232
 Alpha  occ. eigenvalues --   -0.43042  -0.41982  -0.40805  -0.38964  -0.38557
 Alpha  occ. eigenvalues --   -0.37731  -0.36559  -0.36403  -0.35900  -0.33543
 Alpha  occ. eigenvalues --   -0.33100  -0.28546  -0.27172  -0.26320  -0.24933
 Alpha virt. eigenvalues --   -0.05259  -0.04192  -0.03002  -0.02650  -0.00746
 Alpha virt. eigenvalues --    0.00468   0.01023   0.01632   0.02199   0.02511
 Alpha virt. eigenvalues --    0.02982   0.03178   0.03714   0.03992   0.05041

 Mulliken charges:
               1
     1  O   -0.321649
     2  C   -0.280811
     3  C   -0.161775
     4  C    0.929264
     5  C   -0.406984
     6  C   -0.912043
     7  H    0.216215
     8  C    0.568106
     9  H    0.207808
    10  H    0.207067
    11  H    0.202982
    12  C   -0.173785
    13  N   -0.540373
    14  C    0.170123
    15  C   -0.294639
    16  C   -0.086443
    17  C    0.619001
    18  H    0.186914
    19  C   -0.006042
    20  H    0.195253
    21  C   -0.509092
    22  H    0.186763
    23  H    0.179918
    24  C   -0.832995
    25  H    0.211724
    26  H    0.213110
    27  H    0.232380
 Sum of Mulliken charges =   0.00000

 Dipole moment (field-independent basis, Debye):
    X=             -6.1261    Y=             -0.6375    Z=             -0.3742  Tot=              6.1705
 Quadrupole moment (field-independent basis, Debye-Ang):
   XX=           -120.1955   YY=            -92.9208   ZZ=            -90.3225
   XY=            -14.5636   XZ=             -8.5906   YZ=             -1.4923

  Exact polarizability: 250.112   1.647 141.173  -5.479   2.121 133.539
 Approx polarizability: 341.866   6.912 231.199 -10.808  12.380 221.089

                      1                      2                      3
                      A                      A                      A
 Frequencies --      7.7563                33.6787                44.1591
 Red. masses --      4.7260                 1.0168                 3.6904
 Frc consts  --      0.0002                 0.0007                 0.0042
 IR Inten    --      0.1717                 0.2589                 0.0051

                      4                      5                      6
                      A                      A                      A
 Frequencies --     59.9544                93.4225               145.7484
 Red. masses --      5.9348                 8.3575                 8.2502
 Frc consts  --      0.0126                 0.0430                 0.1033
 IR Inten    --      0.6053                 4.1749                 6.3394

                      7                      8                      9
                      A                      A                      A
 Frequencies --    209.9983               239.8428               244.5089
 Red. masses --      3.1978                 5.5085                 5.1358
 Frc consts  --      0.0831                 0.1867                 0.1809
 IR Inten    --      1.7214                 1.0760                 0.4203

                     10                     11                     12
                      A                      A                      A
 Frequencies --    291.5816               316.6431               419.8669
 Red. masses --      5.0486                 4.3194                 3.0638
 Frc consts  --      0.2529                 0.2552                 0.3182
 IR Inten    --      1.1860                 0.4217                 0.0362

                     13                     14                     15
                      A                      A                      A
 Frequencies --    435.7918               447.0301               465.4779
 Red. masses --      4.6767                 3.8744                 3.8997
 Frc consts  --      0.5233                 0.4562                 0.4978
 IR Inten    --      2.9129                 2.5478                 2.6284

                     16                     17                     18
                      A                      A                      A
 Frequencies --    480.8825               522.7821               544.9768
 Red. masses --      5.0668                 5.2487                 5.9233
 Frc consts  --      0.6903                 0.8452                 1.0365
 IR Inten    --      0.2152                 1.0908                 0.9673

                     19                     20                     21
                      A                      A                      A
 Frequencies --    558.9255               560.0599               631.7443
 Red. masses --      5.3707                 3.7446                 5.1979
 Frc consts  --      0.9885                 0.6920                 1.2223
 IR Inten    --      5.3189                13.8727                 0.2472

                     22                     23                     24
                      A                      A                      A
 Frequencies --    662.8218               693.2829               715.7546
 Red. masses --      7.0122                 3.9318                 3.0245
 Frc consts  --      1.8151                 1.1134                 0.9129
 IR Inten    --      0.7880                15.8435                 2.7057

                     25                     26                     27
                      A                      A                      A
 Frequencies --    718.8688               761.3909               806.2055
 Red. masses --      3.3060                 5.4190                 1.6494
 Frc consts  --      1.0066                 1.8509                 0.6316
 IR Inten    --      2.0813                 8.8069                32.6570

                     28                     29                     30
                      A                      A                      A
 Frequencies --    832.1198               848.6417               850.4142
 Red. masses --      1.2506                 1.6385                 5.0704
 Frc consts  --      0.5102                 0.6953                 2.1605
 IR Inten    --      0.5547                54.7361                 7.1305

                     31                     32                     33
                      A                      A                      A
 Frequencies --    890.6054               922.5388               960.1471
 Red. masses --      1.3292                 1.5135                 3.0781
 Frc consts  --      0.6212                 0.7589                 1.6719
 IR Inten    --      6.5581                 8.1555                40.7649

                     34                     35                     36
                      A                      A                      A
 Frequencies --    965.1913               976.0722               985.4234
 Red. masses --      1.3014                 1.3350                 1.3043
 Frc consts  --      0.7143                 0.7494                 0.7462
 IR Inten    --      0.6390                 0.0481                 0.1619

                     37                     38                     39
                      A                      A                      A
 Frequencies --   1017.0434              1030.8755              1034.3187
 Red. masses --      6.1921                 2.6698                 1.5405
 Frc consts  --      3.7737                 1.6716                 0.9710
 IR Inten    --      6.2519                 1.2535                 7.8017

                     40                     41                     42
                      A                      A                      A
 Frequencies --   1071.8557              1117.7705              1150.1663
 Red. masses --      1.5247                 1.5243                 1.3197
 Frc consts  --      1.0321                 1.1221                 1.0286
 IR Inten    --      7.8030                 6.3668                 7.3594

                     43                     44                     45
                      A                      A                      A
 Frequencies --   1173.1723              1202.7185              1207.0961
 Red. masses --      1.8126                 1.1691                 1.3174
 Frc consts  --      1.4699                 0.9964                 1.1310
 IR Inten    --     20.7327                 0.7320                93.5398

                     46                     47                     48
                      A                      A                      A
 Frequencies --   1228.6851              1261.4094              1289.9287
 Red. masses --      3.0499                 3.5711                 5.0885
 Frc consts  --      2.7128                 3.3478                 4.9885
 IR Inten    --      1.3971                34.9546               484.0466

                     49                     50                     51
                      A                      A                      A
 Frequencies --   1321.8946              1339.3208              1343.6373
 Red. masses --      1.7357                 2.0353                 2.5714
 Frc consts  --      1.7869                 2.1510                 2.7351
 IR Inten    --      2.5613                24.2370                11.7272

                     52                     53                     54
                      A                      A                      A
 Frequencies --   1355.9382              1439.7948              1459.6692
 Red. masses --      3.1878                 1.2299                 3.0345
 Frc consts  --      3.4532                 1.5022                 3.8093
 IR Inten    --      0.5850                 0.8411                 2.4096

                     55                     56                     57
                      A                      A                      A
 Frequencies --   1469.4394              1513.5012              1516.0960
 Red. masses --      2.3712                 1.0620                 1.2573
 Frc consts  --      3.0166                 1.4333                 1.7027
 IR Inten    --     24.5485                 7.8975                15.2936

                     58                     59                     60
                      A                      A                      A
 Frequencies --   1530.4549              1545.1554              1612.5418
 Red. masses --      2.1417                 2.4155                 6.7452
 Frc consts  --      2.9557                 3.3978                10.3340
 IR Inten    --    115.2200               151.6231                 6.8877

                     61                     62                     63
                      A                      A                      A
 Frequencies --   1633.8178              1654.0365              1662.2144
 Red. masses --      5.5079                 5.9099                 5.7380
 Frc consts  --      8.6625                 9.5262                 9.3409
 IR Inten    --    113.9123               102.1662                44.8198

                     64                     65                     66
                      A                      A                      A
 Frequencies --   2330.0404              3038.3925              3095.2545
 Red. masses --     12.6784                 1.0396                 1.0966
 Frc consts  --     40.5547                 5.6547                 6.1898
 IR Inten    --     89.3916                29.4303                15.4647

                     67                     68                     69
                      A                      A                      A
 Frequencies --   3119.7187              3179.4844              3194.4202
 Red. masses --      1.1029                 1.0877                 1.0912
 Frc consts  --      6.3243                 6.4784                 6.5606
 IR Inten    --     16.0077                 7.1998                11.8515

                     70                     71                     72
                      A                      A                      A
 Frequencies --   3197.5125              3206.7744              3208.1801
 Red. masses --      1.0921                 1.0890                 1.0899
 Frc consts  --      6.5788                 6.5980                 6.6093
 IR Inten    --     14.8924                 4.4167                 1.8224

                     73                     74                     75
                      A                      A                      A
 Frequencies --   3215.9573              3222.1729              3229.9051
 Red. masses --      1.0950                 1.0954                 1.0933
 Frc consts  --      6.6727                 6.7007                 6.7198
 IR Inten    --      5.0410                 3.1597                 1.4568

 - Thermochemistry -
 -------------------
 Temperature   298.150 Kelvin.  Pressure   1.00000 Atm.
 Atom     1 has atomic number  8 and mass  15.99491

 Molecular mass:   209.08406 amu.
 Principal axes and moments of inertia in atomic units:
                           1         2         3
     Eigenvalues --  1304.173897760.101678045.16894
           X            0.99987  -0.01607  -0.00122
           Y            0.01595   0.99747  -0.06931
           Z            0.00233   0.06928   0.99759
 This molecule is an asymmetric top.
 Rotational symmetry number  1.
 Warning -- assumption of classical behavior for rotation
           may cause significant error
 Rotational temperatures (Kelvin)      0.06641     0.01116     0.01077
 Rotational constants (GHZ):           1.38382     0.23257     0.22433
 Zero-point vibrational energy     554856.0 (Joules/Mol)
                                  132.61376 (Kcal/Mol)
 Warning -- explicit consideration of  20 degrees of freedom as
           vibrations may cause significant error
 Vibrational temperatures:     11.16    48.46    63.54    86.26   134.41
          (Kelvin)            209.70   302.14   345.08   351.79   419.52
                              455.58   604.09   627.01   643.18   669.72
                              691.88   752.17   784.10   804.17   805.80
                              908.94   953.65   997.48  1029.81  1034.29
                             1095.47  1159.95  1197.23  1221.01  1223.56
                             1281.38  1327.33  1381.44  1388.69  1404.35
                             1417.80  1463.30  1483.20  1488.15  1542.16
                             1608.22  1654.83  1687.93  1730.44  1736.74
                             1767.80  1814.89  1855.92  1901.91  1926.98
                             1933.19  1950.89  2071.54  2100.14  2114.20
                             2177.59  2181.32  2201.98  2223.13  2320.09
                             2350.70  2379.79  2391.56  3352.41  4371.57
                             4453.38  4488.58  4574.57  4596.06  4600.51
                             4613.83  4615.86  4627.05  4635.99  4647.11

 Zero-point correction=                           0.211333 (Hartree/Particle)
 Thermal correction to Energy=                    0.225066
 Thermal correction to Enthalpy=                  0.226010
 Thermal correction to Gibbs Free Energy=         0.167378
 Sum of electronic and zero-point Energies=           -669.908802
 Sum of electronic and thermal Energies=              -669.895070
 Sum of electronic and thermal Enthalpies=            -669.894126
 Sum of electronic and thermal Free Energies=         -669.952758

                     E (Thermal)             CV                S
                      KCal/Mol        Cal/Mol-Kelvin    Cal/Mol-Kelvin
 Total                  141.231             52.101            123.402
 Electronic               0.000              0.000              0.000
 Translational            0.889              2.981             41.917
 Rotational               0.889              2.981             32.765
 Vibrational            139.453             46.140             48.720
 Vibration     1          0.593              1.987              8.516
 Vibration     2          0.594              1.983              5.600
 Vibration     3          0.595              1.980              5.063
 Vibration     4          0.597              1.973              4.459
 Vibration     5          0.602              1.954              3.587
 Vibration     6          0.617              1.907              2.727
 Vibration     7          0.642              1.826              2.044
 Vibration     8          0.657              1.779              1.804
 Vibration     9          0.660              1.772              1.770
 Vibration    10          0.687              1.689              1.465
 Vibration    11          0.704              1.642              1.327
 Vibration    12          0.783              1.427              0.892
 Vibration    13          0.796              1.392              0.840
 Vibration    14          0.806              1.367              0.805
 Vibration    15          0.823              1.327              0.750
 Vibration    16          0.837              1.292              0.708
 Vibration    17          0.878              1.200              0.604
 Vibration    18          0.900              1.151              0.555
 Vibration    19          0.915              1.120              0.526
 Vibration    20          0.916              1.118              0.524

 Optimization completed.
    -- Stationary point found.
 Normal termination of Gaussian 16 at Sat Sep 23 00:57:29 2023.
