 Gaussian 16, Revision B.01,
 Gaussian 16:  EM64L-G16RevB.01 20-Dec-2017

 ---------------------------------------------------------
 # opt freq b3lyp/6-31+g(d) empiricaldispersion=gd3 volume
 ---------------------------------------------------------

 -------------
 ML molecule77
 -------------
 Symbolic Z-matrix:
 Charge =  0 Multiplicity = 1

 SCF Done:  E(RB3LYP) =  -896.653754700     A.U. after   16 cycles
 SCF Done:  E(RB3LYP) =  -896.685658623     A.U. after   18 cycles
 SCF Done:  E(RB3LYP) =  -896.694647802     A.U. after   17 cycles
 SCF Done:  E(RB3LYP) =  -896.699888064     A.U. after   17 cycles
 SCF Done:  E(RB3LYP) =  -896.703874656     A.U. after   18 cycles
 SCF Done:  E(RB3LYP) =  -896.704058800     A.U. after   19 cycles
 SCF Done:  E(RB3LYP) =  -896.707584378     A.U. after   15 cycles
 SCF Done:  E(RB3LYP) =  -896.707759315     A.U. after   16 cycles
 SCF Done:  E(RB3LYP) =  -896.707875034     A.U. after   16 cycles
 SCF Done:  E(RB3LYP) =  -896.708655288     A.U. after   17 cycles
 SCF Done:  E(RB3LYP) =  -896.720159452     A.U. after   15 cycles
 SCF Done:  E(RB3LYP) =  -896.720257160     A.U. after   14 cycles
 SCF Done:  E(RB3LYP) =  -896.720268352     A.U. after   13 cycles
 SCF Done:  E(RB3LYP) =  -896.720271458     A.U. after   12 cycles
 SCF Done:  E(RB3LYP) =  -896.720272335     A.U. after   12 cycles
 SCF Done:  E(RB3LYP) =  -896.720273204     A.U. after   12 cycles
 SCF Done:  E(RB3LYP) =  -896.720274511     A.U. after   12 cycles
 SCF Done:  E(RB3LYP) =  -896.720275847     A.U. after   12 cycles
 SCF Done:  E(RB3LYP) =  -896.720276157     A.U. after   11 cycles
 Optimization completed.
    -- Stationary point found.
 Normal termination of Gaussian 16 at Sat Sep 16 17:33:43 2023.

 ---------------------------------------------------------------------
 #N Geom=AllCheck Guess=TCheck SCRF=Check GenChk RB3LYP/6-31+G(d) Freq
 ---------------------------------------------------------------------

 Structure from the checkpoint file:  "molecule_77.chk"
 -------------
 ML molecule77
 -------------
 Charge =  0 Multiplicity = 1

                         Standard orientation:
 ---------------------------------------------------------------------
 Center     Atomic      Atomic             Coordinates (Angstroms)
 Number     Number       Type             X           Y           Z
 ---------------------------------------------------------------------
      1          6           0       -3.800961    0.216312   -0.130508
      2          6           0       -3.716274   -1.165821    0.071386
      3          6           0       -2.465676   -1.758038    0.175671
      4          6           0       -1.307957   -0.970361    0.076573
      5          6           0       -1.400720    0.413883   -0.131996
      6          6           0       -2.655675    1.007424   -0.234618
      7          1           0       -4.622818   -1.754327    0.147259
      8          1           0       -0.503756    1.016350   -0.218254
      9          1           0       -2.753547    2.074145   -0.398112
     10          1           0       -2.360292   -2.826332    0.334295
     11          7           0       -5.119278    0.846177   -0.236643
     12          8           0       -5.164966    2.067695   -0.409221
     13          8           0       -6.114539    0.121420   -0.147554
     14          6           0        1.326607   -0.286778    1.557013
     15          6           0        1.066380   -0.932748    0.323744
     16          6           0        2.528635    0.359284    1.737129
     17          6           0        1.984439   -0.941494   -0.696921
     18          6           0        3.512619    0.382356    0.708905
     19          1           0        2.741463    0.857098    2.680225
     20          6           0        3.235361   -0.285629   -0.530112
     21          1           0        1.750863   -1.454124   -1.625775
     22          6           0        4.761731    1.040852    0.871148
     23          6           0        4.219261   -0.267563   -1.556081
     24          6           0        5.695840    1.041997   -0.143079
     25          1           0        4.969926    1.545495    1.812003
     26          6           0        5.421104    0.381680   -1.367516
     27          1           0        4.008339   -0.774769   -2.494759
     28          1           0        6.647285    1.549150   -0.007180
     29          1           0        6.164852    0.388655   -2.159937
     30          1           0        0.574279   -0.315339    2.339431
     31          8           0       -0.121740   -1.644289    0.164635
 ---------------------------------------------------------------------

 SCF Done:  E(RB3LYP) =  -896.720276157     A.U. after    1 cycles

 The electronic state is 1-A.
 Alpha  occ. eigenvalues --  -19.22399 -19.19112 -19.19102 -14.57933 -10.29334
 Alpha  occ. eigenvalues --  -10.27610 -10.25972 -10.23379 -10.23270 -10.22638
 Alpha  occ. eigenvalues --  -10.22561 -10.22373 -10.22363 -10.22151 -10.22029
 Alpha  occ. eigenvalues --  -10.21744 -10.21441 -10.21429 -10.21361 -10.21302
 Alpha  occ. eigenvalues --   -1.23034  -1.11260  -1.05746  -0.90369  -0.89564
 Alpha  occ. eigenvalues --   -0.84761  -0.81681  -0.79728  -0.78844  -0.76514
 Alpha  occ. eigenvalues --   -0.74757  -0.70841  -0.66284  -0.64977  -0.63836
 Alpha  occ. eigenvalues --   -0.62131  -0.60449  -0.57998  -0.56068  -0.53894
 Alpha  occ. eigenvalues --   -0.53708  -0.53097  -0.52707  -0.50383  -0.48989
 Alpha  occ. eigenvalues --   -0.48050  -0.47461  -0.46534  -0.46031  -0.45084
 Alpha  occ. eigenvalues --   -0.44217  -0.43491  -0.42875  -0.42479  -0.40882
 Alpha  occ. eigenvalues --   -0.40226  -0.38075  -0.37266  -0.36541  -0.35472
 Alpha  occ. eigenvalues --   -0.34203  -0.31835  -0.31760  -0.30876  -0.29875
 Alpha  occ. eigenvalues --   -0.29019  -0.27213  -0.25738  -0.23966
 Alpha virt. eigenvalues --   -0.09908  -0.06585  -0.04383  -0.03557  -0.00943
 Alpha virt. eigenvalues --   -0.00727  -0.00520   0.00245   0.00496   0.01636
 Alpha virt. eigenvalues --    0.01859   0.02515   0.03083   0.03309   0.04502

 Mulliken charges:
               1
     1  C   -0.086548
     2  C    0.065841
     3  C   -0.664905
     4  C    0.083121
     5  C    0.502659
     6  C   -0.492509
     7  H    0.231759
     8  H    0.218405
     9  H    0.232373
    10  H    0.206099
    11  N   -0.341633
    12  O   -0.034820
    13  O   -0.033079
    14  C   -0.097828
    15  C   -0.231282
    16  C   -0.130956
    17  C    0.274751
    18  C    0.193778
    19  H    0.192066
    20  C    0.049284
    21  H    0.196232
    22  C   -0.084864
    23  C   -0.157022
    24  C   -0.360477
    25  H    0.187341
    26  C   -0.363209
    27  H    0.187505
    28  H    0.185236
    29  H    0.185347
    30  H    0.196458
    31  O   -0.309126
 Sum of Mulliken charges =   0.00000

 Dipole moment (field-independent basis, Debye):
    X=              6.4158    Y=             -1.0687    Z=              0.5069  Tot=              6.5240
 Quadrupole moment (field-independent basis, Debye-Ang):
   XX=           -141.7854   YY=           -117.4383   ZZ=           -108.7888
   XY=             16.2770   XZ=             -4.2504   YZ=              3.8965

  Exact polarizability: 341.278  19.788 169.037 -17.379   6.053 156.660
 Approx polarizability: 468.605  47.394 311.663 -35.143  12.834 270.112

                      1                      2                      3
                      A                      A                      A
 Frequencies --     13.2919                32.2386                46.3347
 Red. masses --      6.0608                 6.5187                 6.1830
 Frc consts  --      0.0006                 0.0040                 0.0078
 IR Inten    --      0.2462                 0.2746                 0.2863

                      4                      5                      6
                      A                      A                      A
 Frequencies --     69.5539               101.7694               129.2120
 Red. masses --      5.3347                 7.9104                 6.1078
 Frc consts  --      0.0152                 0.0483                 0.0601
 IR Inten    --      0.0791                 3.3254                 1.0215

                      7                      8                      9
                      A                      A                      A
 Frequencies --    186.1702               201.0968               254.4427
 Red. masses --      3.7384                 8.5476                 6.5763
 Frc consts  --      0.0763                 0.2037                 0.2508
 IR Inten    --      1.1293                 0.8841                 1.3807

                     10                     11                     12
                      A                      A                      A
 Frequencies --    281.7356               316.3222               330.7289
 Red. masses --      6.5204                 5.6831                 5.9723
 Frc consts  --      0.3049                 0.3350                 0.3849
 IR Inten    --      0.6777                 1.1070                 1.2455

                     13                     14                     15
                      A                      A                      A
 Frequencies --    396.4292               416.7047               428.0467
 Red. masses --      5.1134                 4.5049                 3.1297
 Frc consts  --      0.4735                 0.4609                 0.3379
 IR Inten    --      0.0816                 0.0807                 0.3843

                     16                     17                     18
                      A                      A                      A
 Frequencies --    447.8616               485.7931               496.0926
 Red. masses --      4.9203                 2.7599                 3.2524
 Frc consts  --      0.5815                 0.3837                 0.4716
 IR Inten    --      4.1515                21.9366                 8.2961

                     19                     20                     21
                      A                      A                      A
 Frequencies --    510.7712               530.8670               537.3933
 Red. masses --      4.3792                 6.2175                 5.5781
 Frc consts  --      0.6731                 1.0324                 0.9491
 IR Inten    --      0.6676                 0.4613                 1.2185

                     22                     23                     24
                      A                      A                      A
 Frequencies --    567.1368               617.3206               642.6290
 Red. masses --      5.1809                 5.5911                 6.4209
 Frc consts  --      0.9818                 1.2554                 1.5623
 IR Inten    --      0.6209                 5.1420                 4.1482

                     25                     26                     27
                      A                      A                      A
 Frequencies --    644.1570               679.3677               692.3969
 Red. masses --      6.5705                 3.4239                 3.9059
 Frc consts  --      1.6063                 0.9311                 1.1033
 IR Inten    --     11.0787                 3.1481                 9.3585

                     28                     29                     30
                      A                      A                      A
 Frequencies --    739.2728               753.3619               766.4506
 Red. masses --      3.3794                 5.5800                 1.9344
 Frc consts  --      1.0882                 1.8659                 0.6695
 IR Inten    --      5.8322                20.2476                23.4607

                     31                     32                     33
                      A                      A                      A
 Frequencies --    772.8693               780.9797               819.3825
 Red. masses --      2.4428                 4.8503                 3.6115
 Frc consts  --      0.8597                 1.7430                 1.4286
 IR Inten    --     13.0748                 1.5689                17.4524

                     34                     35                     36
                      A                      A                      A
 Frequencies --    830.5758               831.5603               863.4936
 Red. masses --      1.4941                 1.3725                 1.7919
 Frc consts  --      0.6073                 0.5592                 0.7872
 IR Inten    --      3.4009                 9.6074                43.3917

                     37                     38                     39
                      A                      A                      A
 Frequencies --    868.4840               880.7926               909.3024
 Red. masses --      4.7647                 1.7956                 1.6384
 Frc consts  --      2.1174                 0.8207                 0.7981
 IR Inten    --     26.4299                29.1096                21.4616

                     40                     41                     42
                      A                      A                      A
 Frequencies --    924.6134               963.3817               977.3161
 Red. masses --      5.0538                 1.3211                 1.3632
 Frc consts  --      2.5456                 0.7224                 0.7672
 IR Inten    --     21.4635                 1.3652                 3.1637

                     43                     44                     45
                      A                      A                      A
 Frequencies --    980.7501               985.0594               988.1282
 Red. masses --      1.3145                 3.8256                 1.3321
 Frc consts  --      0.7450                 2.1871                 0.7663
 IR Inten    --      1.7618                58.4112                 0.8162

                     46                     47                     48
                      A                      A                      A
 Frequencies --    999.0459              1027.6084              1050.6265
 Red. masses --      1.3020                 2.7923                 2.3369
 Frc consts  --      0.7656                 1.7373                 1.5198
 IR Inten    --      0.0096                 0.8355                 1.0416

                     49                     50                     51
                      A                      A                      A
 Frequencies --   1133.9439              1150.1139              1151.2456
 Red. masses --      3.3116                 1.5836                 1.3866
 Frc consts  --      2.5089                 1.2342                 1.0828
 IR Inten    --    124.8906                14.1781                11.6872

                     52                     53                     54
                      A                      A                      A
 Frequencies --   1180.4336              1186.8869              1196.9560
 Red. masses --      1.2975                 1.5235                 1.2841
 Frc consts  --      1.0652                 1.2645                 1.0840
 IR Inten    --      1.8300                34.4263                 9.7026

                     55                     56                     57
                      A                      A                      A
 Frequencies --   1208.7443              1242.5059              1273.7590
 Red. masses --      1.2838                 2.7283                 1.7750
 Frc consts  --      1.1051                 2.4817                 1.6968
 IR Inten    --    118.1601                 6.8112                49.1901

                     58                     59                     60
                      A                      A                      A
 Frequencies --   1287.2056              1298.9160              1333.2169
 Red. masses --      3.6011                 1.8249                 1.3410
 Frc consts  --      3.5155                 1.8140                 1.4043
 IR Inten    --    756.9568                14.3315                 3.5003

                     61                     62                     63
                      A                      A                      A
 Frequencies --   1372.4651              1376.6366              1393.7314
 Red. masses --      8.8536                 9.1616                 1.9831
 Frc consts  --      9.8259                10.2297                 2.2696
 IR Inten    --    248.1800               261.2607                 1.9055

                     64                     65                     66
                      A                      A                      A
 Frequencies --   1407.4439              1419.6424              1464.0342
 Red. masses --      5.6297                 4.6133                 3.3367
 Frc consts  --      6.5705                 5.4779                 4.2137
 IR Inten    --      5.1542                11.3756                 6.7152

                     67                     68                     69
                      A                      A                      A
 Frequencies --   1482.1288              1510.6496              1534.0458
 Red. masses --      2.4270                 2.1926                 2.3495
 Frc consts  --      3.1412                 2.9480                 3.2577
 IR Inten    --      2.1073                67.0192               143.6006

                     70                     71                     72
                      A                      A                      A
 Frequencies --   1556.1593              1583.1627              1622.6106
 Red. masses --      3.3176                12.0506                 6.8948
 Frc consts  --      4.7335                17.7956                10.6955
 IR Inten    --     31.9399               186.0570                 3.8207

                     73                     74                     75
                      A                      A                      A
 Frequencies --   1641.5217              1648.6677              1657.9239
 Red. masses --      5.7710                 7.1883                 5.7646
 Frc consts  --      9.1621                11.5117                 9.3357
 IR Inten    --    254.0953               109.4861                26.2994

                     76                     77                     78
                      A                      A                      A
 Frequencies --   1682.7503              3176.1702              3180.5877
 Red. masses --      6.2509                 1.0864                 1.0887
 Frc consts  --     10.4287                 6.4574                 6.4888
 IR Inten    --     13.9065                 3.1047                 0.6983

                     79                     80                     81
                      A                      A                      A
 Frequencies --   3184.8632              3194.7522              3203.0166
 Red. masses --      1.0887                 1.0933                 1.0917
 Frc consts  --      6.5062                 6.5748                 6.5988
 IR Inten    --      7.7033                26.2952                 7.9889

                     82                     83                     84
                      A                      A                      A
 Frequencies --   3207.7300              3211.7432              3218.0963
 Red. masses --      1.0969                 1.0944                 1.0906
 Frc consts  --      6.6498                 6.6515                 6.6547
 IR Inten    --     26.5863                 4.9300                 1.9270

                     85                     86                     87
                      A                      A                      A
 Frequencies --   3226.5803              3244.2435              3245.6371
 Red. masses --      1.0896                 1.0936                 1.0936
 Frc consts  --      6.6833                 6.7816                 6.7872
 IR Inten    --      1.9903                 1.5117                 2.1978

 - Thermochemistry -
 -------------------
 Temperature   298.150 Kelvin.  Pressure   1.00000 Atm.
 Atom     1 has atomic number  6 and mass  12.00000

 Molecular mass:   265.07389 amu.
 Principal axes and moments of inertia in atomic units:
                           1         2         3
     Eigenvalues --  1641.81242********************
           X            0.99997   0.00737  -0.00204
           Y           -0.00725   0.99858   0.05276
           Z            0.00243  -0.05275   0.99860
 This molecule is an asymmetric top.
 Rotational symmetry number  1.
 Warning -- assumption of classical behavior for rotation
           may cause significant error
 Rotational temperatures (Kelvin)      0.05276     0.00616     0.00600
 Rotational constants (GHZ):           1.09924     0.12826     0.12499
 Zero-point vibrational energy     616434.7 (Joules/Mol)
                                  147.33144 (Kcal/Mol)
 Warning -- explicit consideration of  23 degrees of freedom as
           vibrations may cause significant error
 Vibrational temperatures:     19.12    46.38    66.67   100.07   146.42
          (Kelvin)            185.91   267.86   289.33   366.09   405.35
                              455.12   475.85   570.37   599.55   615.86
                              644.37   698.95   713.77   734.89   763.80
                              773.19   815.98   888.19   924.60   926.80
                              977.46   996.20  1063.65  1083.92  1102.75
                             1111.99  1123.66  1178.91  1195.01  1196.43
                             1242.37  1249.55  1267.26  1308.28  1330.31
                             1386.09  1406.14  1411.08  1417.28  1421.70
                             1437.40  1478.50  1511.62  1631.49  1654.76
                             1656.39  1698.38  1707.67  1722.15  1739.11
                             1787.69  1832.66  1852.00  1868.85  1918.20
                             1974.67  1980.67  2005.27  2025.00  2042.55
                             2106.42  2132.45  2173.49  2207.15  2238.97
                             2277.82  2334.57  2361.78  2372.07  2385.38
                             2421.10  4569.80  4576.16  4582.31  4596.54
                             4608.43  4615.21  4620.98  4630.12  4642.33
                             4667.74  4669.75

 Zero-point correction=                           0.234788 (Hartree/Particle)
 Thermal correction to Energy=                    0.249894
 Thermal correction to Enthalpy=                  0.250838
 Thermal correction to Gibbs Free Energy=         0.189745
 Sum of electronic and zero-point Energies=           -896.485489
 Sum of electronic and thermal Energies=              -896.470382
 Sum of electronic and thermal Enthalpies=            -896.469438
 Sum of electronic and thermal Free Energies=         -896.530531

                     E (Thermal)             CV                S
                      KCal/Mol        Cal/Mol-Kelvin    Cal/Mol-Kelvin
 Total                  156.811             60.217            128.582
 Electronic               0.000              0.000              0.000
 Translational            0.889              2.981             42.624
 Rotational               0.889              2.981             34.166
 Vibrational            155.034             54.256             51.792
 Vibration     1          0.593              1.987              7.446
 Vibration     2          0.594              1.983              5.687
 Vibration     3          0.595              1.979              4.968
 Vibration     4          0.598              1.969              4.166
 Vibration     5          0.604              1.948              3.420
 Vibration     6          0.612              1.924              2.958
 Vibration     7          0.632              1.859              2.266
 Vibration     8          0.638              1.838              2.123
 Vibration     9          0.665              1.755              1.700
 Vibration    10          0.681              1.707              1.523
 Vibration    11          0.703              1.642              1.329
 Vibration    12          0.713              1.614              1.257
 Vibration    13          0.763              1.478              0.976
 Vibration    14          0.780              1.434              0.903
 Vibration    15          0.790              1.409              0.865
 Vibration    16          0.807              1.366              0.802
 Vibration    17          0.842              1.282              0.695
 Vibration    18          0.852              1.259              0.668
 Vibration    19          0.866              1.226              0.632
 Vibration    20          0.886              1.182              0.585
 Vibration    21          0.892              1.167              0.571
 Vibration    22          0.923              1.102              0.510
 Vibration    23          0.977              0.995              0.421

 Optimization completed.
    -- Stationary point found.
 Normal termination of Gaussian 16 at Sat Sep 16 17:42:38 2023.
