 Gaussian 16, Revision B.01,
 Gaussian 16:  EM64L-G16RevB.01 20-Dec-2017

 ---------------------------------------------------------
 # opt freq b3lyp/6-31+g(d) empiricaldispersion=gd3 volume
 ---------------------------------------------------------

 -------------
 ML molecule84
 -------------
 Symbolic Z-matrix:
 Charge =  0 Multiplicity = 1

 SCF Done:  E(RB3LYP) =  -670.121880550     A.U. after   15 cycles
 Optimization completed.
    -- Stationary point found.
 Normal termination of Gaussian 16 at Sat Sep 23 01:03:13 2023.

 ---------------------------------------------------------------------
 #N Geom=AllCheck Guess=TCheck SCRF=Check GenChk RB3LYP/6-31+G(d) Freq
 ---------------------------------------------------------------------

 Structure from the checkpoint file:  "molecule_84.chk"
 -------------
 ML molecule84
 -------------
 Charge =  0 Multiplicity = 1

                         Standard orientation:
 ---------------------------------------------------------------------
 Center     Atomic      Atomic             Coordinates (Angstroms)
 Number     Number       Type             X           Y           Z
 ---------------------------------------------------------------------
      1          8           0       -0.674084    0.528471    1.239292
      2          6           0        0.567726    0.250489    0.733869
      3          6           0        0.786676   -0.570511   -0.380137
      4          6           0        1.647646    0.837752    1.408685
      5          6           0        2.089483   -0.797022   -0.817756
      6          6           0        2.944409    0.607886    0.970019
      7          1           0        1.447108    1.467982    2.269281
      8          6           0        3.179279   -0.212411   -0.151114
      9          1           0        2.265507   -1.431857   -1.680838
     10          1           0        3.782930    1.061495    1.489390
     11          1           0       -0.051297   -1.027025   -0.895268
     12          6           0        4.516534   -0.448116   -0.607112
     13          7           0        5.603914   -0.638647   -0.977775
     14          6           0       -1.807742    0.069412    0.564118
     15          6           0       -2.426770   -1.088172    1.028401
     16          6           0       -2.318270    0.820174   -0.504849
     17          6           0       -3.596404   -1.535120    0.408426
     18          1           0       -1.986953   -1.620411    1.866653
     19          6           0       -3.492006    0.349117   -1.109115
     20          6           0       -4.127030   -0.814490   -0.664547
     21          1           0       -4.087154   -2.437057    0.763545
     22          1           0       -3.915331    0.910395   -1.939080
     23          1           0       -5.037317   -1.152610   -1.152320
     24          6           0       -1.621758    2.075237   -0.967683
     25          1           0       -1.431285    2.752288   -0.127219
     26          1           0       -0.647825    1.848348   -1.419737
     27          1           0       -2.223747    2.605854   -1.711536
 ---------------------------------------------------------------------

 SCF Done:  E(RB3LYP) =  -670.121880550     A.U. after    1 cycles

 The electronic state is 1-A.
 Alpha  occ. eigenvalues --  -19.21711 -14.34282 -10.28673 -10.26776 -10.24412
 Alpha  occ. eigenvalues --  -10.23555 -10.23156 -10.23059 -10.22342 -10.22048
 Alpha  occ. eigenvalues --  -10.21910 -10.21427 -10.21372 -10.21301 -10.21188
 Alpha  occ. eigenvalues --  -10.20152  -1.10564  -0.91360  -0.88928  -0.87542
 Alpha  occ. eigenvalues --   -0.79957  -0.79335  -0.78307  -0.75887  -0.70899
 Alpha  occ. eigenvalues --   -0.67036  -0.64954  -0.62597  -0.60749  -0.57493
 Alpha  occ. eigenvalues --   -0.56153  -0.51538  -0.50721  -0.50019  -0.47547
 Alpha  occ. eigenvalues --   -0.46349  -0.45585  -0.44066  -0.43592  -0.43013
 Alpha  occ. eigenvalues --   -0.42754  -0.41861  -0.40985  -0.39342  -0.38575
 Alpha  occ. eigenvalues --   -0.37553  -0.36548  -0.36515  -0.36073  -0.33666
 Alpha  occ. eigenvalues --   -0.33214  -0.28666  -0.27101  -0.26290  -0.25102
 Alpha virt. eigenvalues --   -0.05409  -0.04160  -0.02827  -0.02763  -0.00680
 Alpha virt. eigenvalues --    0.00317   0.00857   0.01491   0.02047   0.02396
 Alpha virt. eigenvalues --    0.03099   0.03314   0.04016   0.04327   0.04820

 Mulliken charges:
               1
     1  O   -0.311051
     2  C   -0.239450
     3  C    0.892229
     4  C   -0.310052
     5  C   -0.793007
     6  C   -0.353398
     7  H    0.203058
     8  C    0.523463
     9  H    0.207838
    10  H    0.208190
    11  H    0.216727
    12  C   -0.175788
    13  N   -0.540278
    14  C   -0.116034
    15  C    0.015013
    16  C    1.018150
    17  C   -0.185343
    18  H    0.196933
    19  C   -0.912898
    20  C   -0.114853
    21  H    0.186118
    22  H    0.183420
    23  H    0.183469
    24  C   -0.666724
    25  H    0.239217
    26  H    0.237672
    27  H    0.207376
 Sum of Mulliken charges =   0.00000

 Dipole moment (field-independent basis, Debye):
    X=             -5.5808    Y=              0.5676    Z=              0.4912  Tot=              5.6310
 Quadrupole moment (field-independent basis, Debye-Ang):
   XX=           -122.2231   YY=            -90.0078   ZZ=            -91.6703
   XY=              8.2895   XZ=             12.6046   YZ=             -0.8200

  Exact polarizability: 247.577  10.118 136.294  -0.231   2.423 136.739
 Approx polarizability: 343.203  15.120 218.519  -2.920  12.109 232.875

                      1                      2                      3
                      A                      A                      A
 Frequencies --     25.6391                45.1013                65.1990
 Red. masses --      4.6709                 3.7140                 5.7986
 Frc consts  --      0.0018                 0.0045                 0.0145
 IR Inten    --      0.3324                 0.0811                 0.6280

                      4                      5                      6
                      A                      A                      A
 Frequencies --     95.6891               120.7738               144.3099
 Red. masses --      4.7204                 1.2008                 6.3770
 Frc consts  --      0.0255                 0.0103                 0.0782
 IR Inten    --      3.6824                 0.3228                 5.1136

                      7                      8                      9
                      A                      A                      A
 Frequencies --    181.0003               242.9231               277.1751
 Red. masses --      3.2089                 5.8229                 4.3221
 Frc consts  --      0.0619                 0.2025                 0.1956
 IR Inten    --      1.7390                 1.8725                 3.2905

                     10                     11                     12
                      A                      A                      A
 Frequencies --    288.0183               320.1486               419.7818
 Red. masses --      4.5768                 4.5711                 3.0709
 Frc consts  --      0.2237                 0.2760                 0.3188
 IR Inten    --      0.5477                 1.3505                 0.0368

                     13                     14                     15
                      A                      A                      A
 Frequencies --    436.2288               446.7235               473.9309
 Red. masses --      5.0229                 4.2272                 3.7901
 Frc consts  --      0.5632                 0.4970                 0.5016
 IR Inten    --      2.4469                 2.0842                 2.5462

                     16                     17                     18
                      A                      A                      A
 Frequencies --    481.4725               534.4305               557.1466
 Red. masses --      4.7057                 4.9099                 7.0643
 Frc consts  --      0.6427                 0.8262                 1.2920
 IR Inten    --      0.8972                 2.4170                 0.3459

                     19                     20                     21
                      A                      A                      A
 Frequencies --    559.5795               568.7720               622.1126
 Red. masses --      3.4190                 5.2147                 5.3200
 Frc consts  --      0.6308                 0.9939                 1.2131
 IR Inten    --     17.1130                 2.1117                 0.1111

                     22                     23                     24
                      A                      A                      A
 Frequencies --    661.8177               697.4272               716.6063
 Red. masses --      7.0732                 5.7009                 4.2334
 Frc consts  --      1.8253                 1.6338                 1.2809
 IR Inten    --      0.8811                 3.7479                 0.8093

                     25                     26                     27
                      A                      A                      A
 Frequencies --    734.5965               771.6284               790.0601
 Red. masses --      2.0592                 3.0948                 2.3483
 Frc consts  --      0.6547                 1.0857                 0.8636
 IR Inten    --     12.7899                30.6802                27.1014

                     28                     29                     30
                      A                      A                      A
 Frequencies --    831.7133               834.0940               849.7463
 Red. masses --      2.6887                 1.5394                 1.6643
 Frc consts  --      1.0958                 0.6310                 0.7081
 IR Inten    --      6.5797                 1.2991                55.1725

                     31                     32                     33
                      A                      A                      A
 Frequencies --    878.0775               892.0334               955.2335
 Red. masses --      1.4097                 5.4294                 1.3865
 Frc consts  --      0.6404                 2.5454                 0.7454
 IR Inten    --      0.8330                21.4771                 2.1299

                     34                     35                     36
                      A                      A                      A
 Frequencies --    965.7221               976.7691               991.7628
 Red. masses --      1.2974                 1.3358                 1.2865
 Frc consts  --      0.7129                 0.7509                 0.7455
 IR Inten    --      0.6187                 0.0908                 0.0043

                     37                     38                     39
                      A                      A                      A
 Frequencies --   1017.2881              1030.8499              1067.7531
 Red. masses --      1.5924                 2.7147                 2.0991
 Frc consts  --      0.9709                 1.6997                 1.4100
 IR Inten    --      2.2356                 1.6787                 5.9949

                     40                     41                     42
                      A                      A                      A
 Frequencies --   1076.1204              1137.7341              1149.6032
 Red. masses --      1.5045                 1.9160                 1.3190
 Frc consts  --      1.0265                 1.4613                 1.0271
 IR Inten    --      2.5593                38.9624                 7.9280

                     43                     44                     45
                      A                      A                      A
 Frequencies --   1196.4467              1203.2438              1209.5422
 Red. masses --      1.1901                 1.5435                 1.8278
 Frc consts  --      1.0037                 1.3167                 1.5755
 IR Inten    --      3.6814                20.9731                95.1962

                     46                     47                     48
                      A                      A                      A
 Frequencies --   1228.2757              1243.8738              1283.6533
 Red. masses --      3.1425                 2.7940                 4.5691
 Frc consts  --      2.7933                 2.5470                 4.4358
 IR Inten    --      0.6877                 3.9618               482.2943

                     49                     50                     51
                      A                      A                      A
 Frequencies --   1313.5439              1338.7594              1343.1174
 Red. masses --      1.4779                 1.9921                 2.7428
 Frc consts  --      1.5024                 2.1036                 2.9152
 IR Inten    --      0.0498                17.6721                 7.8447

                     52                     53                     54
                      A                      A                      A
 Frequencies --   1347.0451              1443.1405              1459.7239
 Red. masses --      6.2340                 1.2359                 3.0711
 Frc consts  --      6.6648                 1.5165                 3.8556
 IR Inten    --      1.2602                 2.0237                 3.8220

                     55                     56                     57
                      A                      A                      A
 Frequencies --   1483.2689              1504.4286              1518.7287
 Red. masses --      1.8833                 1.0475                 1.4275
 Frc consts  --      2.4412                 1.3969                 1.9399
 IR Inten    --     23.1360                12.7156                 8.8685

                     58                     59                     60
                      A                      A                      A
 Frequencies --   1533.2164              1545.5948              1613.1320
 Red. masses --      1.8939                 2.4377                 6.7582
 Frc consts  --      2.6231                 3.4310                10.3615
 IR Inten    --    136.9902               118.8966                 6.9488

                     61                     62                     63
                      A                      A                      A
 Frequencies --   1629.7383              1652.0481              1662.3619
 Red. masses --      5.4947                 6.0399                 5.8844
 Frc consts  --      8.5986                 9.7124                 9.5808
 IR Inten    --     28.0224                96.1945                54.7626

                     64                     65                     66
                      A                      A                      A
 Frequencies --   2330.3907              3043.8085              3098.0248
 Red. masses --     12.6783                 1.0382                 1.0983
 Frc consts  --     40.5666                 5.6674                 6.2107
 IR Inten    --     87.5495                21.4894                13.6439

                     67                     68                     69
                      A                      A                      A
 Frequencies --   3127.6651              3177.9792              3191.2278
 Red. masses --      1.1026                 1.0874                 1.0891
 Frc consts  --      6.3546                 6.4706                 6.5349
 IR Inten    --     18.8434                 6.1046                 8.8475

                     70                     71                     72
                      A                      A                      A
 Frequencies --   3203.5311              3206.5129              3207.7821
 Red. masses --      1.0931                 1.0890                 1.0894
 Frc consts  --      6.6092                 6.5971                 6.6049
 IR Inten    --     23.6059                 4.6714                 1.2783

                     73                     74                     75
                      A                      A                      A
 Frequencies --   3214.1390              3221.8930              3225.8921
 Red. masses --      1.0967                 1.0954                 1.0938
 Frc consts  --      6.6754                 6.6996                 6.7061
 IR Inten    --      9.1730                 3.1128                 1.2916

 - Thermochemistry -
 -------------------
 Temperature   298.150 Kelvin.  Pressure   1.00000 Atm.
 Atom     1 has atomic number  8 and mass  15.99491

 Molecular mass:   209.08406 amu.
 Principal axes and moments of inertia in atomic units:
                           1         2         3
     Eigenvalues --  1274.981997093.581387150.18858
           X            0.99994   0.00724   0.00839
           Y           -0.00446   0.95603  -0.29323
           Z           -0.01014   0.29317   0.95601
 This molecule is an asymmetric top.
 Rotational symmetry number  1.
 Warning -- assumption of classical behavior for rotation
           may cause significant error
 Rotational temperatures (Kelvin)      0.06793     0.01221     0.01211
 Rotational constants (GHZ):           1.41550     0.25442     0.25240
 Zero-point vibrational energy     555871.9 (Joules/Mol)
                                  132.85657 (Kcal/Mol)
 Warning -- explicit consideration of  20 degrees of freedom as
           vibrations may cause significant error
 Vibrational temperatures:     36.89    64.89    93.81   137.68   173.77
          (Kelvin)            207.63   260.42   349.51   398.79   414.39
                              460.62   603.97   627.64   642.74   681.88
                              692.73   768.93   801.61   805.11   818.34
                              895.08   952.21  1003.44  1031.04  1056.92
                             1110.20  1136.72  1196.65  1200.08  1222.60
                             1263.36  1283.44  1374.37  1389.46  1405.35
                             1426.93  1463.65  1483.16  1536.26  1548.30
                             1636.95  1654.02  1721.42  1731.20  1740.26
                             1767.21  1789.66  1846.89  1889.90  1926.18
                             1932.45  1938.10  2076.36  2100.22  2134.09
                             2164.54  2185.11  2205.96  2223.77  2320.94
                             2344.83  2376.93  2391.77  3352.91  4379.36
                             4457.37  4500.01  4572.40  4591.47  4609.17
                             4613.46  4615.28  4624.43  4635.59  4641.34

 Zero-point correction=                           0.211720 (Hartree/Particle)
 Thermal correction to Energy=                    0.225198
 Thermal correction to Enthalpy=                  0.226142
 Thermal correction to Gibbs Free Energy=         0.170073
 Sum of electronic and zero-point Energies=           -669.910160
 Sum of electronic and thermal Energies=              -669.896683
 Sum of electronic and thermal Enthalpies=            -669.895738
 Sum of electronic and thermal Free Energies=         -669.951807

                     E (Thermal)             CV                S
                      KCal/Mol        Cal/Mol-Kelvin    Cal/Mol-Kelvin
 Total                  141.314             51.951            118.006
 Electronic               0.000              0.000              0.000
 Translational            0.889              2.981             41.917
 Rotational               0.889              2.981             32.536
 Vibrational            139.536             45.990             43.554
 Vibration     1          0.593              1.985              6.141
 Vibration     2          0.595              1.979              5.021
 Vibration     3          0.597              1.971              4.293
 Vibration     4          0.603              1.952              3.540
 Vibration     5          0.609              1.932              3.088
 Vibration     6          0.616              1.909              2.746
 Vibration     7          0.630              1.866              2.318
 Vibration     8          0.659              1.774              1.781
 Vibration     9          0.678              1.716              1.551
 Vibration    10          0.685              1.696              1.486
 Vibration    11          0.706              1.635              1.309
 Vibration    12          0.782              1.427              0.893
 Vibration    13          0.797              1.391              0.839
 Vibration    14          0.806              1.368              0.806
 Vibration    15          0.831              1.308              0.727
 Vibration    16          0.838              1.291              0.706
 Vibration    17          0.889              1.174              0.577
 Vibration    18          0.913              1.124              0.530
 Vibration    19          0.915              1.119              0.525
 Vibration    20          0.925              1.099              0.507

 Optimization completed.
    -- Stationary point found.
 Normal termination of Gaussian 16 at Sat Sep 23 01:08:19 2023.
