 Gaussian 16, Revision B.01,
 Gaussian 16:  EM64L-G16RevB.01 20-Dec-2017

 ----------------------------------------------------------------------
 # opt freq b3lyp/6-31+g(d) geom=connectivity empiricaldispersion=gd3 v
 olume
 ----------------------------------------------------------------------

 -------------------
 Title Card Required
 -------------------
 Symbolic Z-matrix:
 Charge =  0 Multiplicity = 1

 SCF Done:  E(RB3LYP) =  -654.981275973     A.U. after   15 cycles
 SCF Done:  E(RB3LYP) =  -654.981276015     A.U. after    9 cycles
 SCF Done:  E(RB3LYP) =  -654.981276000     A.U. after    8 cycles
 Optimization completed.
    -- Stationary point found.
 Normal termination of Gaussian 16 at Mon Sep 18 06:12:32 2023.

 ---------------------------------------------------------------------
 #N Geom=AllCheck Guess=TCheck SCRF=Check GenChk RB3LYP/6-31+G(d) Freq
 ---------------------------------------------------------------------

 Structure from the checkpoint file:  "molecule_36.chk"
 -------------------
 Title Card Required
 -------------------
 Charge =  0 Multiplicity = 1

                         Standard orientation:
 ---------------------------------------------------------------------
 Center     Atomic      Atomic             Coordinates (Angstroms)
 Number     Number       Type             X           Y           Z
 ---------------------------------------------------------------------
      1          6           0        4.883450    1.203418   -0.009153
      2          6           0        2.769263    0.000203   -0.003843
      3          6           0        3.490815   -1.212071   -0.006204
      4          6           0        4.883161   -1.203517   -0.009154
      5          6           0        5.605821   -0.000125   -0.007853
      6          1           0        5.420958    2.149365   -0.014201
      7          1           0        2.948373   -2.153046   -0.009252
      8          1           0        5.420461   -2.149586   -0.014208
      9          6           0        1.347900    0.000361   -0.003482
     10          6           0        0.125335    0.000424   -0.002596
     11          6           0       -1.235108    0.000196   -0.001790
     12          6           0       -2.457538    0.000046   -0.001052
     13          6           0       -3.879675   -0.000021    0.000451
     14          6           0       -4.596208   -1.216232    0.001199
     15          6           0       -4.596322    1.216123    0.001196
     16          6           0       -5.989917   -1.210677    0.002643
     17          1           0       -4.048386   -2.153977    0.000613
     18          6           0       -5.990030    1.210438    0.002638
     19          1           0       -4.048587    2.153920    0.000607
     20          6           0       -6.691805   -0.000153    0.003371
     21          1           0       -6.530507   -2.153662    0.003192
     22          1           0       -6.530709    2.153372    0.003184
     23          6           0        3.491087    1.212293   -0.006204
     24          1           0        2.948871    2.153399   -0.009254
     25          6           0        7.115815   -0.000388    0.025112
     26          1           0        7.528687    0.887458   -0.466616
     27          1           0        7.484762   -0.002616    1.060044
     28          1           0        7.528430   -0.886328   -0.470280
     29          1           0       -7.778616   -0.000203    0.004499
 ---------------------------------------------------------------------

 SCF Done:  E(RB3LYP) =  -654.981276000     A.U. after    1 cycles

 The electronic state is 1-A.
 Alpha  occ. eigenvalues --  -10.22889 -10.22591 -10.21485 -10.21221 -10.21113
 Alpha  occ. eigenvalues --  -10.20862 -10.20862 -10.20837 -10.20826 -10.20793
 Alpha  occ. eigenvalues --  -10.20792 -10.20709 -10.20620 -10.20604 -10.20269
 Alpha  occ. eigenvalues --  -10.20268 -10.19592  -0.87469  -0.87286  -0.81221
 Alpha  occ. eigenvalues --   -0.79768  -0.77171  -0.76020  -0.75909  -0.73429
 Alpha  occ. eigenvalues --   -0.70037  -0.64474  -0.62118  -0.61902  -0.61476
 Alpha  occ. eigenvalues --   -0.58698  -0.54620  -0.53497  -0.49161  -0.47893
 Alpha  occ. eigenvalues --   -0.47423  -0.46661  -0.44636  -0.43792  -0.43513
 Alpha  occ. eigenvalues --   -0.43301  -0.43109  -0.40003  -0.39231  -0.38252
 Alpha  occ. eigenvalues --   -0.37095  -0.36549  -0.36332  -0.35624  -0.34647
 Alpha  occ. eigenvalues --   -0.33964  -0.30371  -0.26666  -0.26584  -0.26321
 Alpha  occ. eigenvalues --   -0.24886  -0.21357
 Alpha virt. eigenvalues --   -0.06929  -0.02238  -0.02197  -0.02149  -0.02076
 Alpha virt. eigenvalues --    0.00238   0.00488   0.01691   0.02151   0.02487
 Alpha virt. eigenvalues --    0.02959   0.03406   0.04300   0.04566   0.05285

 Mulliken charges:
               1
     1  C   -0.208951
     2  C   -0.180652
     3  C   -0.177966
     4  C   -0.203948
     5  C    0.397925
     6  H    0.178270
     7  H    0.195663
     8  H    0.178280
     9  C   -1.187936
    10  C    1.091357
    11  C    1.122807
    12  C   -1.295211
    13  C    0.263387
    14  C   -0.462893
    15  C   -0.463163
    16  C    0.039563
    17  H    0.196459
    18  C    0.039669
    19  H    0.196458
    20  C   -0.194950
    21  H    0.183766
    22  H    0.183766
    23  C   -0.178183
    24  H    0.195666
    25  C   -0.742151
    26  H    0.210486
    27  H    0.229680
    28  H    0.210563
    29  H    0.182239
 Sum of Mulliken charges =   0.00000

 Dipole moment (field-independent basis, Debye):
    X=              0.7921    Y=             -0.0007    Z=              0.0480  Tot=              0.7936
 Quadrupole moment (field-independent basis, Debye-Ang):
   XX=            -65.5123   YY=            -89.6868   ZZ=           -106.6297
   XY=             -0.0024   XZ=              0.3025   YZ=              0.0000

  Exact polarizability: 519.435  -0.002 173.290   0.714   0.000 100.766
 Approx polarizability: 729.674   0.004 288.656   0.780   0.000 147.136

                      1                      2                      3
                      A                      A                      A
 Frequencies --      8.5087                21.3532                26.0577
 Red. masses --      2.9325                 1.1490                 4.3154
 Frc consts  --      0.0001                 0.0003                 0.0017
 IR Inten    --      0.0216                 0.5075                 0.5948

                      4                      5                      6
                      A                      A                      A
 Frequencies --     29.0471                76.4171                79.4597
 Red. masses --      5.5341                 5.2579                 5.0044
 Frc consts  --      0.0028                 0.0181                 0.0186
 IR Inten    --      1.1983                 0.0084                 0.0211

                      7                      8                      9
                      A                      A                      A
 Frequencies --    157.6728               216.4794               216.9128
 Red. masses --      5.0431                 7.2118                 6.2618
 Frc consts  --      0.0739                 0.1991                 0.1736
 IR Inten    --      0.1719                 0.0031                 0.0091

                     10                     11                     12
                      A                      A                      A
 Frequencies --    247.7205               344.6998               357.8062
 Red. masses --      4.9850                 2.9100                 5.0345
 Frc consts  --      0.1802                 0.2037                 0.3798
 IR Inten    --      0.1875                 0.0085                 0.3909

                     13                     14                     15
                      A                      A                      A
 Frequencies --    410.7270               412.4075               446.1312
 Red. masses --      2.9261                 2.9440                 6.3288
 Frc consts  --      0.2908                 0.2950                 0.7422
 IR Inten    --      0.0006                 0.0015                14.9241

                     16                     17                     18
                      A                      A                      A
 Frequencies --    451.5258               469.7113               519.6440
 Red. masses --      4.4285                 6.5325                 7.4560
 Frc consts  --      0.5319                 0.8492                 1.1862
 IR Inten    --     13.5087                 0.0008                 2.1145

                     19                     20                     21
                      A                      A                      A
 Frequencies --    527.9820               595.1255               623.3693
 Red. masses --      3.0172                 4.5640                 8.0299
 Frc consts  --      0.4956                 0.9524                 1.8384
 IR Inten    --      2.3529                12.7550                 0.0363

                     22                     23                     24
                      A                      A                      A
 Frequencies --    627.3768               643.5010               661.7504
 Red. masses --      5.7273                 8.0558                 7.5608
 Frc consts  --      1.3282                 1.9654                 1.9508
 IR Inten    --      2.0661                 0.0591                 0.0645

                     25                     26                     27
                      A                      A                      A
 Frequencies --    699.7982               718.6562               748.2396
 Red. masses --      1.9300                 3.3043                 5.5028
 Frc consts  --      0.5569                 1.0055                 1.8151
 IR Inten    --     37.5714                 2.3979                 2.0152

                     28                     29                     30
                      A                      A                      A
 Frequencies --    760.8427               822.5594               832.3392
 Red. masses --      1.8882                 4.7300                 1.5610
 Frc consts  --      0.6440                 1.8856                 0.6372
 IR Inten    --     39.8930                 5.4134                48.4787

                     31                     32                     33
                      A                      A                      A
 Frequencies --    846.2366               847.8641               852.9926
 Red. masses --      6.1857                 1.2488                 1.2476
 Frc consts  --      2.6099                 0.5289                 0.5348
 IR Inten    --      0.7269                 0.0174                 0.0000

                     34                     35                     36
                      A                      A                      A
 Frequencies --    932.8593               968.5159               976.4560
 Red. masses --      1.4700                 1.2957                 1.3572
 Frc consts  --      0.7537                 0.7161                 0.7624
 IR Inten    --      3.2687                 0.8913                 0.0006

                     37                     38                     39
                      A                      A                      A
 Frequencies --    980.0215               999.7618              1002.2510
 Red. masses --      1.3639                 7.5779                 1.2840
 Frc consts  --      0.7718                 4.4626                 0.7599
 IR Inten    --      0.0000                 0.1035                 0.0238

                     40                     41                     42
                      A                      A                      A
 Frequencies --   1014.3561              1021.3358              1039.8524
 Red. masses --      6.6222                 1.4048                 2.7811
 Frc consts  --      4.0145                 0.8634                 1.7718
 IR Inten    --      0.1863                 0.0340                 5.5612

                     43                     44                     45
                      A                      A                      A
 Frequencies --   1054.9824              1070.3786              1109.5080
 Red. masses --      2.0718                 1.5321                 1.6283
 Frc consts  --      1.3586                 1.0342                 1.1810
 IR Inten    --      3.6885                20.9847                 4.8548

                     46                     47                     48
                      A                      A                      A
 Frequencies --   1154.8087              1200.3581              1215.3264
 Red. masses --      1.3509                 1.1085                 1.2422
 Frc consts  --      1.0614                 0.9410                 1.0810
 IR Inten    --      4.8223                 0.0094                 0.6447

                     49                     50                     51
                      A                      A                      A
 Frequencies --   1220.8604              1234.2631              1241.3053
 Red. masses --      1.3823                 2.6768                 2.4828
 Frc consts  --      1.2139                 2.4026                 2.2540
 IR Inten    --      1.1516                 2.2854                14.5055

                     52                     53                     54
                      A                      A                      A
 Frequencies --   1323.1381              1324.8547              1349.6009
 Red. masses --      4.5243                 3.3460                 1.4929
 Frc consts  --      4.6668                 3.4603                 1.6021
 IR Inten    --      0.0820                 0.0749                 0.1116

                     55                     56                     57
                      A                      A                      A
 Frequencies --   1364.2942              1388.6299              1438.5386
 Red. masses --      1.6835                 4.4080                 1.2327
 Frc consts  --      1.8462                 5.0080                 1.5030
 IR Inten    --      0.4163                 0.3685                 0.7698

                     58                     59                     60
                      A                      A                      A
 Frequencies --   1448.1805              1480.7840              1509.8047
 Red. masses --      2.5002                 2.1894                 1.1083
 Frc consts  --      3.0893                 2.8285                 1.4885
 IR Inten    --      1.5120                 4.1943                10.1225

                     61                     62                     63
                      A                      A                      A
 Frequencies --   1512.7253              1533.4731              1554.9951
 Red. masses --      1.0531                 2.2339                 2.6275
 Frc consts  --      1.4198                 3.0950                 3.7433
 IR Inten    --      7.1625                35.9391                18.5986

                     64                     65                     66
                      A                      A                      A
 Frequencies --   1598.8313              1614.9485              1646.8999
 Red. masses --      5.0183                 4.8968                 5.2825
 Frc consts  --      7.5580                 7.5246                 8.4416
 IR Inten    --      0.5577                 1.1569                15.1392

                     67                     68                     69
                      A                      A                      A
 Frequencies --   1657.8992              2235.7174              2311.7895
 Red. masses --      5.4730                11.9985                11.9957
 Frc consts  --      8.8632                35.3354                37.7722
 IR Inten    --      7.5334                 1.6052                 9.2927

                     70                     71                     72
                      A                      A                      A
 Frequencies --   3033.5195              3089.9709              3116.3156
 Red. masses --      1.0406                 1.0952                 1.1028
 Frc consts  --      5.6422                 6.1608                 6.3098
 IR Inten    --     49.8163                21.9779                16.3770

                     73                     74                     75
                      A                      A                      A
 Frequencies --   3175.1638              3175.8919              3180.3677
 Red. masses --      1.0888                 1.0889                 1.0857
 Frc consts  --      6.4673                 6.4707                 6.4699
 IR Inten    --     13.5045                33.3853                 2.5992

                     76                     77                     78
                      A                      A                      A
 Frequencies --   3189.1103              3200.8343              3205.3136
 Red. masses --      1.0887                 1.0922                 1.0931
 Frc consts  --      6.5240                 6.5929                 6.6171
 IR Inten    --      6.5392                22.3820                18.0163

                     79                     80                     81
                      A                      A                      A
 Frequencies --   3206.8443              3208.6223              3212.7695
 Red. masses --      1.0941                 1.0942                 1.0973
 Frc consts  --      6.6293                 6.6369                 6.6733
 IR Inten    --      0.7132                22.1334                16.0945

 - Thermochemistry -
 -------------------
 Temperature   298.150 Kelvin.  Pressure   1.00000 Atm.
 Atom     1 has atomic number  6 and mass  12.00000

 Molecular mass:   216.09390 amu.
 Principal axes and moments of inertia in atomic units:
                           1         2         3
     Eigenvalues --   647.16473********************
           X            1.00000   0.00000   0.00007
           Y            0.00000   1.00000   0.00000
           Z           -0.00007   0.00000   1.00000
 This molecule is an asymmetric top.
 Rotational symmetry number  1.
 Warning -- assumption of classical behavior for rotation
           may cause significant error
 Rotational temperatures (Kelvin)      0.13384     0.00531     0.00511
 Rotational constants (GHZ):           2.78869     0.11061     0.10646
 Zero-point vibrational energy     604281.3 (Joules/Mol)
                                  144.42670 (Kcal/Mol)
 Warning -- explicit consideration of  20 degrees of freedom as
           vibrations may cause significant error
 Vibrational temperatures:     12.24    30.72    37.49    41.79   109.95
          (Kelvin)            114.32   226.86   311.47   312.09   356.41
                              495.95   514.80   590.94   593.36   641.88
                              649.64   675.81   747.65   759.65   856.25
                              896.89   902.66   925.85   952.11  1006.85
                             1033.99  1076.55  1094.68  1183.48  1197.55
                             1217.55  1219.89  1227.27  1342.18  1393.48
                             1404.90  1410.03  1438.43  1442.02  1459.43
                             1469.47  1496.12  1517.88  1540.04  1596.33
                             1661.51  1727.05  1748.58  1756.55  1775.83
                             1785.96  1903.70  1906.17  1941.77  1962.92
                             1997.93  2069.74  2083.61  2130.52  2172.27
                             2176.47  2206.33  2237.29  2300.36  2323.55
                             2369.52  2385.35  3216.70  3326.15  4364.56
                             4445.78  4483.68  4568.35  4569.40  4575.84
                             4588.42  4605.29  4611.73  4613.93  4616.49
                             4622.46

 Zero-point correction=                           0.230159 (Hartree/Particle)
 Thermal correction to Energy=                    0.244909
 Thermal correction to Enthalpy=                  0.245854
 Thermal correction to Gibbs Free Energy=         0.183227
 Sum of electronic and zero-point Energies=           -654.751117
 Sum of electronic and thermal Energies=              -654.736367
 Sum of electronic and thermal Enthalpies=            -654.735422
 Sum of electronic and thermal Free Energies=         -654.798049

                     E (Thermal)             CV                S
                      KCal/Mol        Cal/Mol-Kelvin    Cal/Mol-Kelvin
 Total                  153.683             55.384            131.809
 Electronic               0.000              0.000              0.000
 Translational            0.889              2.981             42.015
 Rotational               0.889              2.981             33.548
 Vibrational            151.905             49.422             56.247
 Vibration     1          0.593              1.987              8.332
 Vibration     2          0.593              1.985              6.504
 Vibration     3          0.593              1.985              6.109
 Vibration     4          0.593              1.984              5.893
 Vibration     5          0.599              1.965              3.981
 Vibration     6          0.600              1.963              3.904
 Vibration     7          0.621              1.894              2.578
 Vibration     8          0.645              1.816              1.988
 Vibration     9          0.646              1.815              1.985
 Vibration    10          0.661              1.767              1.747
 Vibration    11          0.723              1.586              1.190
 Vibration    12          0.733              1.559              1.132
 Vibration    13          0.775              1.447              0.924
 Vibration    14          0.776              1.443              0.918
 Vibration    15          0.805              1.369              0.808
 Vibration    16          0.810              1.358              0.791
 Vibration    17          0.827              1.317              0.738
 Vibration    18          0.875              1.206              0.611
 Vibration    19          0.883              1.188              0.592
 Vibration    20          0.953              1.042              0.458

                           ! Non-Optimized Parameters !
 Normal termination of Gaussian 16 at Mon Sep 18 06:17:11 2023.
