 Gaussian 16, Revision B.01,
 Gaussian 16:  EM64L-G16RevB.01 20-Dec-2017

 ---------------------------------------------------------
 # opt freq b3lyp/6-31+g(d) empiricaldispersion=gd3 volume
 ---------------------------------------------------------

 -------------------
 Title Card Required
 -------------------
 Symbolic Z-matrix:
 Charge =  0 Multiplicity = 1

 SCF Done:  E(RB3LYP) =  -594.854236088     A.U. after   15 cycles
 SCF Done:  E(RB3LYP) =  -594.854648124     A.U. after   12 cycles
 SCF Done:  E(RB3LYP) =  -594.854660597     A.U. after   11 cycles
 SCF Done:  E(RB3LYP) =  -594.854656246     A.U. after   11 cycles
 SCF Done:  E(RB3LYP) =  -594.854670728     A.U. after   11 cycles
 Optimization completed.
    -- Stationary point found.
 Normal termination of Gaussian 16 at Mon Sep 18 04:02:16 2023.

 ---------------------------------------------------------------------
 #N Geom=AllCheck Guess=TCheck SCRF=Check GenChk RB3LYP/6-31+G(d) Freq
 ---------------------------------------------------------------------

 Structure from the checkpoint file:  "molecule_26.chk"
 -------------------
 Title Card Required
 -------------------
 Charge =  0 Multiplicity = 1

                         Standard orientation:
 ---------------------------------------------------------------------
 Center     Atomic      Atomic             Coordinates (Angstroms)
 Number     Number       Type             X           Y           Z
 ---------------------------------------------------------------------
      1          6           0        3.279966   -1.185350    0.002041
      2          6           0        2.559936    0.030631    0.000676
      3          6           0        3.307713    1.223530    0.001023
      4          6           0        4.697593    1.147043    0.002630
      5          6           0        5.303269   -0.113259    0.003873
      6          1           0        2.737689   -2.128649    0.001861
      7          1           0        2.796605    2.181992    0.000021
      8          1           0        5.305769    2.047255    0.002915
      9          1           0        6.387335   -0.207506    0.005131
     10          6           0        1.137589    0.033248   -0.000902
     11          6           0       -0.079864    0.027023   -0.002610
     12          6           0       -1.504521    0.016269   -0.003729
     13          6           0       -2.215620   -1.201050   -0.007182
     14          6           0       -2.236239    1.221202   -0.005871
     15          6           0       -3.608310   -1.204775   -0.010913
     16          1           0       -1.665685   -2.137758   -0.010406
     17          6           0       -3.628848    1.201355   -0.009622
     18          1           0       -1.702505    2.167299   -0.008111
     19          6           0       -4.341351   -0.007859   -0.009404
     20          1           0       -4.137338   -2.155505   -0.016738
     21          1           0       -4.174073    2.142918   -0.014430
     22          7           0        4.611672   -1.262772    0.003591
     23          6           0       -5.851425   -0.020899    0.023049
     24          1           0       -6.220789   -0.028175    1.057774
     25          1           0       -6.271669    0.864238   -0.467342
     26          1           0       -6.256377   -0.909357   -0.474161
 ---------------------------------------------------------------------

 SCF Done:  E(RB3LYP) =  -594.854670729     A.U. after    1 cycles

 The electronic state is 1-A.
 Alpha  occ. eigenvalues --  -14.34554 -10.23663 -10.23455 -10.23384 -10.22601
 Alpha  occ. eigenvalues --  -10.22308 -10.21528 -10.21295 -10.20854 -10.20825
 Alpha  occ. eigenvalues --  -10.20485 -10.20349 -10.20331 -10.20194 -10.19653
 Alpha  occ. eigenvalues --   -0.95348  -0.87518  -0.83201  -0.80443  -0.78639
 Alpha  occ. eigenvalues --   -0.75971  -0.74490  -0.70127  -0.65228  -0.64200
 Alpha  occ. eigenvalues --   -0.62187  -0.60790  -0.55715  -0.53724  -0.50628
 Alpha  occ. eigenvalues --   -0.49676  -0.47917  -0.47477  -0.44931  -0.43739
 Alpha  occ. eigenvalues --   -0.43370  -0.43168  -0.41609  -0.41377  -0.40038
 Alpha  occ. eigenvalues --   -0.38598  -0.38193  -0.36583  -0.35579  -0.33438
 Alpha  occ. eigenvalues --   -0.29572  -0.28889  -0.27884  -0.26650  -0.26301
 Alpha  occ. eigenvalues --   -0.22333
 Alpha virt. eigenvalues --   -0.06517  -0.03723  -0.02282  -0.01308  -0.00052
 Alpha virt. eigenvalues --    0.00593   0.01689   0.01879   0.03112   0.03228
 Alpha virt. eigenvalues --    0.03675   0.04382   0.04611   0.04783   0.05520

 Mulliken charges:
               1
     1  C   -0.489137
     2  C    0.319857
     3  C   -0.243398
     4  C    0.110133
     5  C   -0.320099
     6  H    0.192121
     7  H    0.200911
     8  H    0.189980
     9  H    0.183874
    10  C    0.131629
    11  C   -0.186978
    12  C   -0.120638
    13  C   -0.065659
    14  C   -0.102284
    15  C   -0.388492
    16  H    0.193954
    17  C   -0.342464
    18  H    0.191768
    19  C    0.470685
    20  H    0.178808
    21  H    0.178048
    22  N   -0.151373
    23  C   -0.781609
    24  H    0.229560
    25  H    0.210225
    26  H    0.210576
 Sum of Mulliken charges =   0.00000

 Dipole moment (field-independent basis, Debye):
    X=             -2.3200    Y=              2.0081    Z=              0.0440  Tot=              3.0687
 Quadrupole moment (field-independent basis, Debye-Ang):
   XX=            -76.2741   YY=            -82.4746   ZZ=            -93.5183
   XY=             11.3168   XZ=             -0.2542   YZ=              0.0106

  Exact polarizability: 353.415   2.615 157.081  -0.619   0.000  88.527
 Approx polarizability: 488.863   0.967 268.820  -0.704   0.002 131.270

                      1                      2                      3
                      A                      A                      A
 Frequencies --     18.3868                23.9500                40.3123
 Red. masses --      1.4144                 1.9530                 4.8423
 Frc consts  --      0.0003                 0.0007                 0.0046
 IR Inten    --      0.6975                 0.6699                 0.5176

                      4                      5                      6
                      A                      A                      A
 Frequencies --     42.0695               113.7085               138.5809
 Red. masses --      4.9562                 4.4863                 5.2949
 Frc consts  --      0.0052                 0.0342                 0.0599
 IR Inten    --      0.5713                 0.0839                 0.4068

                      7                      8                      9
                      A                      A                      A
 Frequencies --    216.2170               244.3648               326.1502
 Red. masses --      4.3479                 6.3394                 4.3455
 Frc consts  --      0.1198                 0.2230                 0.2723
 IR Inten    --      0.0241                 0.0506                 1.5782

                     10                     11                     12
                      A                      A                      A
 Frequencies --    343.8700               408.2068               413.1407
 Red. masses --      2.8452                 3.2420                 2.9540
 Frc consts  --      0.1982                 0.3183                 0.2971
 IR Inten    --      0.0137                 0.8129                 0.0110

                     13                     14                     15
                      A                      A                      A
 Frequencies --    434.9188               479.8261               512.9794
 Red. masses --      4.5153                 6.2982                 6.6487
 Frc consts  --      0.5032                 0.8543                 1.0308
 IR Inten    --      6.3338                 3.7076                 6.9599

                     16                     17                     18
                      A                      A                      A
 Frequencies --    531.2495               549.3540               568.5539
 Red. masses --      3.1577                 7.9833                 5.0948
 Frc consts  --      0.5251                 1.4195                 0.9703
 IR Inten    --     10.5008                 0.2479                 1.7695

                     19                     20                     21
                      A                      A                      A
 Frequencies --    633.1161               659.1470               688.4007
 Red. masses --      7.8673                 7.0670                 5.6279
 Frc consts  --      1.8580                 1.8090                 1.5714
 IR Inten    --      3.5528                 0.1565                 2.6589

                     22                     23                     24
                      A                      A                      A
 Frequencies --    714.4560               717.0306               800.4162
 Red. masses --      2.3018                 3.1783                 5.2638
 Frc consts  --      0.6923                 0.9628                 1.9869
 IR Inten    --     21.7671                 7.5987                 0.6798

                     25                     26                     27
                      A                      A                      A
 Frequencies --    813.5881               831.8408               848.2772
 Red. masses --      1.5828                 1.4743                 1.2496
 Frc consts  --      0.6173                 0.6010                 0.5298
 IR Inten    --     22.2881                52.4568                 0.0518

                     28                     29                     30
                      A                      A                      A
 Frequencies --    867.8164               938.9168               964.6728
 Red. masses --      6.8251                 1.3365                 1.4130
 Frc consts  --      3.0284                 0.6942                 0.7747
 IR Inten    --      0.3570                 0.5375                 1.0400

                     31                     32                     33
                      A                      A                      A
 Frequencies --    967.3646               976.1447               995.8953
 Red. masses --      1.2950                 1.3575                 1.3749
 Frc consts  --      0.7140                 0.7621                 0.8034
 IR Inten    --      1.0017                 0.0047                 0.0308

                     34                     35                     36
                      A                      A                      A
 Frequencies --   1021.4155              1034.6906              1038.8450
 Red. masses --      1.4039                 4.5556                 2.9272
 Frc consts  --      0.8630                 2.8735                 1.8613
 IR Inten    --      0.0468                 8.0619                 1.8455

                     37                     38                     39
                      A                      A                      A
 Frequencies --   1065.1251              1070.4592              1145.9964
 Red. masses --      2.6790                 1.5331                 1.5883
 Frc consts  --      1.7907                 1.0351                 1.2290
 IR Inten    --      3.1548                16.9315                 6.6818

                     40                     41                     42
                      A                      A                      A
 Frequencies --   1154.7230              1170.2799              1226.4136
 Red. masses --      1.3489                 3.0723                 1.1618
 Frc consts  --      1.0597                 2.4791                 1.0295
 IR Inten    --      5.9638                 6.5769                 1.5990

                     43                     44                     45
                      A                      A                      A
 Frequencies --   1232.8528              1237.9686              1292.1326
 Red. masses --      1.5236                 2.9054                 5.2425
 Frc consts  --      1.3644                 2.6235                 5.1570
 IR Inten    --      6.2390                 3.4359                 1.3682

                     46                     47                     48
                      A                      A                      A
 Frequencies --   1324.7053              1349.4960              1351.5992
 Red. masses --      4.5335                 1.5045                 3.1430
 Frc consts  --      4.6873                 1.6143                 3.3829
 IR Inten    --      0.0718                 0.1496                 4.7300

                     49                     50                     51
                      A                      A                      A
 Frequencies --   1371.8192              1438.6893              1447.7590
 Red. masses --      1.3493                 1.2335                 2.4452
 Frc consts  --      1.4961                 1.5042                 3.0197
 IR Inten    --      3.0251                 0.3845                 4.1777

                     52                     53                     54
                      A                      A                      A
 Frequencies --   1449.9579              1510.1954              1512.8027
 Red. masses --      2.4070                 1.1072                 1.0591
 Frc consts  --      2.9815                 1.4878                 1.4281
 IR Inten    --     17.6761                 9.9494                 7.3240

                     55                     56                     57
                      A                      A                      A
 Frequencies --   1516.1486              1555.7485              1599.8834
 Red. masses --      2.1713                 2.6213                 4.6321
 Frc consts  --      2.9408                 3.7380                 6.9856
 IR Inten    --     16.0830                51.2260                10.4561

                     58                     59                     60
                      A                      A                      A
 Frequencies --   1601.7120              1633.3669              1661.2515
 Red. masses --      4.9178                 5.5213                 5.5583
 Frc consts  --      7.4334                 8.6788                 9.0378
 IR Inten    --      2.0222                 6.1443                 3.7165

                     61                     62                     63
                      A                      A                      A
 Frequencies --   2305.9733              3033.7231              3090.0780
 Red. masses --     11.9971                 1.0406                 1.0953
 Frc consts  --     37.5869                 5.6424                 6.1620
 IR Inten    --     28.9706                44.0083                21.0034

                     64                     65                     66
                      A                      A                      A
 Frequencies --   3116.2081              3174.7771              3175.6127
 Red. masses --      1.1027                 1.0887                 1.0888
 Frc consts  --      6.3092                 6.4651                 6.4691
 IR Inten    --     16.4038                14.3402                26.6753

                     67                     68                     69
                      A                      A                      A
 Frequencies --   3177.4482              3183.1510              3197.5808
 Red. masses --      1.0879                 1.0918                 1.0907
 Frc consts  --      6.4712                 6.5179                 6.5707
 IR Inten    --     12.7630                 9.8994                18.3757

                     70                     71                     72
                      A                      A                      A
 Frequencies --   3203.5666              3205.5530              3212.9829
 Red. masses --      1.0932                 1.0940                 1.0969
 Frc consts  --      6.6105                 6.6235                 6.6717
 IR Inten    --     18.7300                 1.3667                16.3784

 - Thermochemistry -
 -------------------
 Temperature   298.150 Kelvin.  Pressure   1.00000 Atm.
 Atom     1 has atomic number  6 and mass  12.00000

 Molecular mass:   193.08915 amu.
 Principal axes and moments of inertia in atomic units:
                           1         2         3
     Eigenvalues --   637.365669271.948289897.98141
           X            0.99999   0.00410  -0.00018
           Y           -0.00410   0.99999   0.00004
           Z            0.00018  -0.00004   1.00000
 This molecule is an asymmetric top.
 Rotational symmetry number  1.
 Warning -- assumption of classical behavior for rotation
           may cause significant error
 Rotational temperatures (Kelvin)      0.13589     0.00934     0.00875
 Rotational constants (GHZ):           2.83156     0.19465     0.18233
 Zero-point vibrational energy     543796.1 (Joules/Mol)
                                  129.97040 (Kcal/Mol)
 Warning -- explicit consideration of  18 degrees of freedom as
           vibrations may cause significant error
 Vibrational temperatures:     26.45    34.46    58.00    60.53   163.60
          (Kelvin)            199.39   311.09   351.59   469.26   494.75
                              587.32   594.42   625.75   690.36   738.06
                              764.35   790.40   818.02   910.91   948.37
                              990.46  1027.94  1031.65  1151.62  1170.57
                             1196.83  1220.48  1248.59  1350.89  1387.95
                             1391.82  1404.45  1432.87  1469.59  1488.69
                             1494.67  1532.48  1540.15  1648.83  1661.39
                             1683.77  1764.54  1773.80  1781.16  1859.09
                             1905.96  1941.62  1944.65  1973.74  2069.95
                             2083.00  2086.17  2172.83  2176.59  2181.40
                             2238.38  2301.88  2304.51  2350.05  2390.17
                             3317.78  4364.85  4445.93  4483.53  4567.80
                             4569.00  4571.64  4579.84  4600.61  4609.22
                             4612.08  4622.77

 Zero-point correction=                           0.207121 (Hartree/Particle)
 Thermal correction to Energy=                    0.220028
 Thermal correction to Enthalpy=                  0.220972
 Thermal correction to Gibbs Free Energy=         0.164193
 Sum of electronic and zero-point Energies=           -594.647550
 Sum of electronic and thermal Energies=              -594.634643
 Sum of electronic and thermal Enthalpies=            -594.633699
 Sum of electronic and thermal Free Energies=         -594.690478

                     E (Thermal)             CV                S
                      KCal/Mol        Cal/Mol-Kelvin    Cal/Mol-Kelvin
 Total                  138.070             48.467            119.502
 Electronic               0.000              0.000              0.000
 Translational            0.889              2.981             41.679
 Rotational               0.889              2.981             32.436
 Vibrational            136.292             42.506             45.386
 Vibration     1          0.593              1.986              6.801
 Vibration     2          0.593              1.985              6.276
 Vibration     3          0.594              1.981              5.244
 Vibration     4          0.595              1.980              5.159
 Vibration     5          0.607              1.938              3.205
 Vibration     6          0.614              1.915              2.823
 Vibration     7          0.645              1.816              1.991
 Vibration     8          0.660              1.772              1.771
 Vibration     9          0.710              1.623              1.279
 Vibration    10          0.723              1.588              1.194
 Vibration    11          0.773              1.452              0.933
 Vibration    12          0.777              1.442              0.916
 Vibration    13          0.796              1.394              0.843
 Vibration    14          0.836              1.295              0.711
 Vibration    15          0.868              1.221              0.626
 Vibration    16          0.886              1.181              0.584
 Vibration    17          0.905              1.141              0.546
 Vibration    18          0.925              1.099              0.507

                           ! Non-Optimized Parameters !
 Normal termination of Gaussian 16 at Mon Sep 18 04:05:42 2023.
