 Gaussian 16, Revision B.01,
 Gaussian 16:  EM64L-G16RevB.01 20-Dec-2017

 ---------------------------------------------------------
 # opt freq b3lyp/6-31+g(d) empiricaldispersion=gd3 volume
 ---------------------------------------------------------

 -------------------
 Title Card Required
 -------------------
 Symbolic Z-matrix:
 Charge =  0 Multiplicity = 1

 SCF Done:  E(RB3LYP) =  -634.149153120     A.U. after   15 cycles
 SCF Done:  E(RB3LYP) =  -634.167725571     A.U. after   14 cycles
 SCF Done:  E(RB3LYP) =  -634.161319729     A.U. after   16 cycles
 SCF Done:  E(RB3LYP) =  -634.167464760     A.U. after   14 cycles
 SCF Done:  E(RB3LYP) =  -634.169166497     A.U. after   10 cycles
 SCF Done:  E(RB3LYP) =  -634.169407067     A.U. after   14 cycles
 SCF Done:  E(RB3LYP) =  -634.168769364     A.U. after   15 cycles
 SCF Done:  E(RB3LYP) =  -634.169721287     A.U. after   13 cycles
 SCF Done:  E(RB3LYP) =  -634.171127528     A.U. after   16 cycles
 SCF Done:  E(RB3LYP) =  -634.157051056     A.U. after   16 cycles
 SCF Done:  E(RB3LYP) =  -634.176561929     A.U. after   16 cycles
 SCF Done:  E(RB3LYP) =  -634.177879823     A.U. after   13 cycles
 SCF Done:  E(RB3LYP) =  -634.178691548     A.U. after   13 cycles
 SCF Done:  E(RB3LYP) =  -634.178883695     A.U. after   15 cycles
 SCF Done:  E(RB3LYP) =  -634.179041258     A.U. after   13 cycles
 SCF Done:  E(RB3LYP) =  -634.179079937     A.U. after   13 cycles
 SCF Done:  E(RB3LYP) =  -634.179082837     A.U. after   11 cycles
 SCF Done:  E(RB3LYP) =  -634.179083545     A.U. after   10 cycles
 SCF Done:  E(RB3LYP) =  -634.179083663     A.U. after   10 cycles
 Optimization completed.
    -- Stationary point found.
 Normal termination of Gaussian 16 at Sat Sep 16 13:06:11 2023.

 ---------------------------------------------------------------------
 #N Geom=AllCheck Guess=TCheck SCRF=Check GenChk RB3LYP/6-31+G(d) Freq
 ---------------------------------------------------------------------

 Structure from the checkpoint file:  "molecule_65.chk"
 -------------------
 Title Card Required
 -------------------
 Charge =  0 Multiplicity = 1

                         Standard orientation:
 ---------------------------------------------------------------------
 Center     Atomic      Atomic             Coordinates (Angstroms)
 Number     Number       Type             X           Y           Z
 ---------------------------------------------------------------------
      1          6           0        2.773165   -1.208063   -0.003798
      2          6           0        2.044372    0.000037   -0.004108
      3          6           0        2.773195    1.208069   -0.004317
      4          6           0        4.162882    1.209124   -0.002496
      5          6           0        4.883527   -0.000027    0.000206
      6          1           0        2.234274   -2.151259   -0.003556
      7          1           0        2.234363    2.151302   -0.004557
      8          1           0        4.701080    2.154825   -0.008659
      9          6           0        0.621322    0.000013   -0.004730
     10          6           0       -0.597003    0.000015   -0.005189
     11          6           0       -2.021442    0.000042   -0.004578
     12          6           0       -2.745880   -1.209985   -0.006695
     13          6           0       -2.745798    1.210061   -0.006143
     14          6           0       -4.138865   -1.202073   -0.008498
     15          1           0       -2.204631   -2.151887   -0.010844
     16          6           0       -4.138848    1.202215   -0.007957
     17          1           0       -2.204524    2.151947   -0.009836
     18          6           0       -4.862820    0.000114   -0.006249
     19          1           0       -4.675529   -2.148819   -0.013453
     20          1           0       -4.675436    2.148996   -0.012479
     21          6           0        4.162819   -1.209177   -0.001975
     22          1           0        4.701027   -2.154876   -0.007789
     23          7           0        6.278715   -0.000087   -0.055816
     24          1           0        6.735600    0.839539    0.278487
     25          1           0        6.735584   -0.839441    0.279189
     26          6           0       -6.373308   -0.000152    0.028533
     27          1           0       -6.743490   -0.007790    1.063130
     28          1           0       -6.786650    0.890017   -0.459036
     29          1           0       -6.786578   -0.883232   -0.471902
 ---------------------------------------------------------------------

 SCF Done:  E(RB3LYP) =  -634.179083663     A.U. after    1 cycles

 The electronic state is 1-A.
 Alpha  occ. eigenvalues --  -14.36004 -10.24356 -10.21455 -10.21027 -10.20414
 Alpha  occ. eigenvalues --  -10.20138 -10.20137 -10.19673 -10.19672 -10.19607
 Alpha  occ. eigenvalues --  -10.19607 -10.19337 -10.19336 -10.18887 -10.18777
 Alpha  occ. eigenvalues --  -10.18482  -0.93308  -0.86398  -0.85327  -0.79472
 Alpha  occ. eigenvalues --   -0.76632  -0.75481  -0.74882  -0.72449  -0.68633
 Alpha  occ. eigenvalues --   -0.62397  -0.62392  -0.61107  -0.59495  -0.54610
 Alpha  occ. eigenvalues --   -0.53047  -0.52429  -0.50825  -0.46877  -0.46468
 Alpha  occ. eigenvalues --   -0.44507  -0.44366  -0.42835  -0.42832  -0.42322
 Alpha  occ. eigenvalues --   -0.42292  -0.39830  -0.39179  -0.38670  -0.37118
 Alpha  occ. eigenvalues --   -0.35581  -0.35414  -0.34501  -0.33996  -0.29361
 Alpha  occ. eigenvalues --   -0.26586  -0.26066  -0.25599  -0.24400  -0.19481
 Alpha virt. eigenvalues --   -0.04430  -0.01637  -0.01258  -0.00652   0.00432
 Alpha virt. eigenvalues --    0.00780   0.01539   0.01814   0.02611   0.02971
 Alpha virt. eigenvalues --    0.04368   0.04761   0.05010   0.05061   0.06117

 Mulliken charges:
               1
     1  C   -0.770579
     2  C    0.384097
     3  C   -0.770499
     4  C    0.178635
     5  C    0.212725
     6  H    0.191584
     7  H    0.191583
     8  H    0.168794
     9  C   -0.048570
    10  C    0.012877
    11  C   -0.044570
    12  C   -0.045282
    13  C   -0.049823
    14  C   -0.464429
    15  H    0.189365
    16  C   -0.478888
    17  H    0.189363
    18  C    0.478924
    19  H    0.174597
    20  H    0.174561
    21  C    0.178722
    22  H    0.168801
    23  N   -0.848082
    24  H    0.377321
    25  H    0.377314
    26  C   -0.771712
    27  H    0.226602
    28  H    0.208154
    29  H    0.208413
 Sum of Mulliken charges =   0.00000

 Dipole moment (field-independent basis, Debye):
    X=              1.6896    Y=             -0.0007    Z=              1.0409  Tot=              1.9845
 Quadrupole moment (field-independent basis, Debye-Ang):
   XX=            -59.8572   YY=            -84.2390   ZZ=           -102.7006
   XY=              0.0089   XZ=              7.0014   YZ=             -0.0012

  Exact polarizability: 410.008   0.014 169.299  -0.876   0.000  98.323
 Approx polarizability: 557.849   0.019 286.590  -2.404   0.000 145.641

                      1                      2                      3
                      A                      A                      A
 Frequencies --     18.2778                24.2010                35.3784
 Red. masses --      1.4840                 1.7437                 5.0070
 Frc consts  --      0.0003                 0.0006                 0.0037
 IR Inten    --      0.0075                 0.6175                 1.9870

                      4                      5                      6
                      A                      A                      A
 Frequencies --     35.4134                92.9516               130.4507
 Red. masses --      4.5977                 4.6515                 5.2140
 Frc consts  --      0.0034                 0.0237                 0.0523
 IR Inten    --      1.0435                 0.4388                 0.0451

                      7                      8                      9
                      A                      A                      A
 Frequencies --    182.0725               228.0993               265.7058
 Red. masses --      4.7817                 6.2266                 4.8406
 Frc consts  --      0.0934                 0.1909                 0.2014
 IR Inten    --      0.9940                 0.1784                 1.3103

                     10                     11                     12
                      A                      A                      A
 Frequencies --    302.0132               340.6890               380.0633
 Red. masses --      1.0345                 2.9166                 3.3322
 Frc consts  --      0.0556                 0.1995                 0.2836
 IR Inten    --     19.4030                 0.0004                 0.0036

                     13                     14                     15
                      A                      A                      A
 Frequencies --    382.9880               413.3206               416.6909
 Red. masses --      4.8882                 2.9705                 3.0204
 Frc consts  --      0.4224                 0.2990                 0.3090
 IR Inten    --     12.3910                 0.0347                 0.1162

                     16                     17                     18
                      A                      A                      A
 Frequencies --    465.8701               477.4571               488.5036
 Red. masses --      3.8006                 7.1712                 5.3444
 Frc consts  --      0.4860                 0.9632                 0.7514
 IR Inten    --     16.4446                38.6287                 1.9226

                     19                     20                     21
                      A                      A                      A
 Frequencies --    530.3068               548.7709               550.2376
 Red. masses --      2.3206                 7.5448                 2.9830
 Frc consts  --      0.3845                 1.3387                 0.5321
 IR Inten    --    102.8133                 0.0004                65.1907

                     22                     23                     24
                      A                      A                      A
 Frequencies --    571.5238               634.1306               657.7925
 Red. masses --      1.5984                 4.5388                 6.9879
 Frc consts  --      0.3076                 1.0753                 1.7815
 IR Inten    --    364.1074                 4.9822                 0.4030

                     25                     26                     27
                      A                      A                      A
 Frequencies --    661.7574               714.9014               722.5657
 Red. masses --      7.0865                 3.4160                 3.9320
 Frc consts  --      1.8284                 1.0286                 1.2095
 IR Inten    --      0.0870                 1.0746                 3.5567

                     28                     29                     30
                      A                      A                      A
 Frequencies --    777.6433               821.5046               830.1942
 Red. masses --      4.5846                 1.2582                 1.8727
 Frc consts  --      1.6335                 0.5003                 0.7605
 IR Inten    --      0.3214                 0.0564                40.5682

                     31                     32                     33
                      A                      A                      A
 Frequencies --    831.1629               839.6499               846.5203
 Red. masses --      2.3529                 2.1030                 1.2500
 Frc consts  --      0.9577                 0.8736                 0.5278
 IR Inten    --      2.9515                74.8395                 0.0213

                     34                     35                     36
                      A                      A                      A
 Frequencies --    870.2847               953.6119               959.1335
 Red. masses --      6.4179                 1.3159                 1.3368
 Frc consts  --      2.8640                 0.7051                 0.7246
 IR Inten    --      0.0580                 0.3418                 0.0002

                     37                     38                     39
                      A                      A                      A
 Frequencies --    964.1147               973.2020              1020.3648
 Red. masses --      1.2893                 1.3554                 1.4051
 Frc consts  --      0.7061                 0.7564                 0.8620
 IR Inten    --      0.8060                 0.0008                 0.0361

                     40                     41                     42
                      A                      A                      A
 Frequencies --   1030.0603              1038.3983              1070.0574
 Red. masses --      2.8125                 2.8798                 1.5196
 Frc consts  --      1.7582                 1.8296                 1.0252
 IR Inten    --      0.1048                 1.2522                17.9486

                     43                     44                     45
                      A                      A                      A
 Frequencies --   1092.1794              1153.5942              1162.3899
 Red. masses --      1.4796                 1.3476                 3.8705
 Frc consts  --      1.0399                 1.0566                 3.0812
 IR Inten    --      1.6539                 5.5954                17.7924

                     46                     47                     48
                      A                      A                      A
 Frequencies --   1167.8453              1222.3662              1226.6135
 Red. masses --      1.2228                 1.1345                 1.1830
 Frc consts  --      0.9826                 0.9988                 1.0487
 IR Inten    --      7.7523                39.1848                 2.7869

                     49                     50                     51
                      A                      A                      A
 Frequencies --   1237.6982              1314.3534              1321.4597
 Red. masses --      2.9715                 2.9884                 3.9545
 Frc consts  --      2.6820                 3.0417                 4.0686
 IR Inten    --      2.0667               160.8457                 0.5369

                     52                     53                     54
                      A                      A                      A
 Frequencies --   1326.3835              1348.8168              1354.6499
 Red. masses --      2.8131                 1.4881                 4.4371
 Frc consts  --      2.9159                 1.5951                 4.7974
 IR Inten    --      3.3260                 0.0430                 1.7038

                     55                     56                     57
                      A                      A                      A
 Frequencies --   1369.3086              1438.3007              1447.9161
 Red. masses --      1.8779                 1.2346                 2.5145
 Frc consts  --      2.0745                 1.5048                 3.1059
 IR Inten    --      1.2597                 1.0765                 0.7920

                     58                     59                     60
                      A                      A                      A
 Frequencies --   1474.6460              1510.9609              1512.5552
 Red. masses --      2.8018                 1.1059                 1.0521
 Frc consts  --      3.5898                 1.4875                 1.4181
 IR Inten    --      0.1655                 9.0497                 6.8982

                     61                     62                     63
                      A                      A                      A
 Frequencies --   1545.7431              1565.6532              1599.8537
 Red. masses --      2.3801                 2.8338                 5.0810
 Frc consts  --      3.3506                 4.0928                 7.6623
 IR Inten    --      4.0472               214.3397                 1.3609

                     64                     65                     66
                      A                      A                      A
 Frequencies --   1607.4516              1656.8015              1666.3113
 Red. masses --      5.7731                 5.1297                 4.9057
 Frc consts  --      8.7889                 8.2963                 8.0254
 IR Inten    --      1.1176                73.3708                71.4485

                     67                     68                     69
                      A                      A                      A
 Frequencies --   1697.6443              2299.9164              3031.1065
 Red. masses --      1.1838                11.9967                 1.0407
 Frc consts  --      2.0102                37.3883                 5.6334
 IR Inten    --    150.3660                43.9496                56.4698

                     70                     71                     72
                      A                      A                      A
 Frequencies --   3086.6340              3112.8568              3170.9819
 Red. masses --      1.0951                 1.1026                 1.0886
 Frc consts  --      6.1473                 6.2948                 6.4492
 IR Inten    --     22.8809                17.7463                 9.7768

                     73                     74                     75
                      A                      A                      A
 Frequencies --   3171.0415              3171.4909              3171.8032
 Red. masses --      1.0889                 1.0886                 1.0886
 Frc consts  --      6.4513                 6.4510                 6.4523
 IR Inten    --     17.2225                69.5539                 6.4272

                     76                     77                     78
                      A                      A                      A
 Frequencies --   3201.3170              3202.7615              3203.1142
 Red. masses --      1.0930                 1.0930                 1.0939
 Frc consts  --      6.5996                 6.6056                 6.6124
 IR Inten    --     19.9038                22.5816                 0.0348

                     79                     80                     81
                      A                      A                      A
 Frequencies --   3204.4151              3555.2875              3654.2262
 Red. masses --      1.0938                 1.0480                 1.0991
 Frc consts  --      6.6171                 7.8050                 8.6474
 IR Inten    --      0.1716                36.9094                15.0828

 - Thermochemistry -
 -------------------
 Temperature   298.150 Kelvin.  Pressure   1.00000 Atm.
 Atom     1 has atomic number  6 and mass  12.00000

 Molecular mass:   207.10480 amu.
 Principal axes and moments of inertia in atomic units:
                           1         2         3
     Eigenvalues --   650.14912********************
           X            1.00000   0.00000   0.00090
           Y            0.00000   1.00000   0.00000
           Z           -0.00090   0.00000   1.00000
 This molecule is an asymmetric top.
 Rotational symmetry number  1.
 Warning -- assumption of classical behavior for rotation
           may cause significant error
 Rotational temperatures (Kelvin)      0.13322     0.00746     0.00707
 Rotational constants (GHZ):           2.77589     0.15549     0.14740
 Zero-point vibrational energy     618209.1 (Joules/Mol)
                                  147.75551 (Kcal/Mol)
 Warning -- explicit consideration of  22 degrees of freedom as
           vibrations may cause significant error
 Vibrational temperatures:     26.30    34.82    50.90    50.95   133.74
          (Kelvin)            187.69   261.96   328.18   382.29   434.53
                              490.18   546.83   551.03   594.68   599.53
                              670.28   686.95   702.85   762.99   789.56
                              791.67   822.30   912.37   946.42   952.12
                             1028.58  1039.61  1118.86  1181.96  1194.46
                             1195.86  1208.07  1217.95  1252.15  1372.03
                             1379.98  1387.15  1400.22  1468.08  1482.03
                             1494.02  1539.57  1571.40  1659.76  1672.42
                             1680.27  1758.71  1764.82  1780.77  1891.06
                             1901.29  1908.37  1940.65  1949.04  1970.13
                             2069.39  2083.23  2121.69  2173.94  2176.23
                             2223.98  2252.63  2301.83  2312.76  2383.77
                             2397.45  2442.53  3309.07  4361.09  4440.98
                             4478.71  4562.34  4562.42  4563.07  4563.52
                             4605.98  4608.06  4608.57  4610.44  5115.27
                             5257.62

 Zero-point correction=                           0.235463 (Hartree/Particle)
 Thermal correction to Energy=                    0.249974
 Thermal correction to Enthalpy=                  0.250919
 Thermal correction to Gibbs Free Energy=         0.190889
 Sum of electronic and zero-point Energies=           -633.943620
 Sum of electronic and thermal Energies=              -633.929109
 Sum of electronic and thermal Enthalpies=            -633.928165
 Sum of electronic and thermal Free Energies=         -633.988195

                     E (Thermal)             CV                S
                      KCal/Mol        Cal/Mol-Kelvin    Cal/Mol-Kelvin
 Total                  156.861             55.478            126.344
 Electronic               0.000              0.000              0.000
 Translational            0.889              2.981             41.888
 Rotational               0.889              2.981             32.891
 Vibrational            155.084             49.516             51.565
 Vibration     1          0.593              1.986              6.813
 Vibration     2          0.593              1.985              6.256
 Vibration     3          0.594              1.982              5.502
 Vibration     4          0.594              1.982              5.500
 Vibration     5          0.602              1.954              3.597
 Vibration     6          0.612              1.923              2.939
 Vibration     7          0.630              1.864              2.307
 Vibration     8          0.651              1.798              1.894
 Vibration     9          0.672              1.736              1.624
 Vibration    10          0.694              1.670              1.406
 Vibration    11          0.720              1.594              1.209
 Vibration    12          0.750              1.513              1.039
 Vibration    13          0.752              1.506              1.027
 Vibration    14          0.777              1.441              0.915
 Vibration    15          0.780              1.434              0.903
 Vibration    16          0.823              1.326              0.749
 Vibration    17          0.834              1.300              0.717
 Vibration    18          0.844              1.276              0.687
 Vibration    19          0.885              1.183              0.587
 Vibration    20          0.904              1.142              0.547
 Vibration    21          0.906              1.139              0.544
 Vibration    22          0.928              1.093              0.501

                           ! Non-Optimized Parameters !
 Normal termination of Gaussian 16 at Sat Sep 16 13:10:42 2023.
