 Gaussian 16, Revision B.01,
 Gaussian 16:  EM64L-G16RevB.01 20-Dec-2017

 ----------------------------------------------------------------------
 # opt freq b3lyp/6-31+g(d) geom=connectivity empiricaldispersion=gd3 v
 olume
 ----------------------------------------------------------------------

 -------------------
 Title Card Required
 -------------------
 Symbolic Z-matrix:
 Charge =  0 Multiplicity = 1

 SCF Done:  E(RB3LYP) =  -615.659652591     A.U. after   14 cycles
 Optimization completed.
    -- Stationary point found.
 Normal termination of Gaussian 16 at Mon Sep 18 06:39:40 2023.

 ---------------------------------------------------------------------
 #N Geom=AllCheck Guess=TCheck SCRF=Check GenChk RB3LYP/6-31+G(d) Freq
 ---------------------------------------------------------------------

 Structure from the checkpoint file:  "molecule_49.chk"
 -------------------
 Title Card Required
 -------------------
 Charge =  0 Multiplicity = 1

                         Standard orientation:
 ---------------------------------------------------------------------
 Center     Atomic      Atomic             Coordinates (Angstroms)
 Number     Number       Type             X           Y           Z
 ---------------------------------------------------------------------
      1          6           0       -5.434651    1.210633   -0.000268
      2          6           0       -3.324678    0.000035   -0.000011
      3          6           0       -4.040923   -1.216273    0.000296
      4          6           0       -5.434594   -1.210671    0.000323
      5          6           0       -6.136273   -0.000033    0.000044
      6          1           0       -5.975412    2.153487   -0.000486
      7          1           0       -3.493077   -2.154000    0.000511
      8          1           0       -5.975314   -2.153548    0.000556
      9          6           0       -1.902542    0.000033   -0.000048
     10          6           0       -0.680223    0.000023   -0.000051
     11          6           0        0.680228   -0.000013   -0.000047
     12          6           0        1.902545   -0.000049   -0.000049
     13          6           0        3.324677   -0.000060   -0.000009
     14          6           0        4.040985   -1.216305   -0.000305
     15          6           0        5.434668   -1.210622   -0.000269
     16          1           0        3.493212   -2.154076   -0.000555
     17          6           0        5.434575    1.210684    0.000323
     18          6           0        6.136272    0.000046    0.000050
     19          1           0        5.975429   -2.153475   -0.000492
     20          1           0        5.975294    2.153562    0.000555
     21          6           0       -4.040976    1.216299   -0.000302
     22          1           0       -3.493182    2.154057   -0.000547
     23          1           0        7.223076    0.000095    0.000079
     24          1           0       -7.223077   -0.000056    0.000068
     25          6           0        4.040912    1.216268    0.000292
     26          1           0        3.493043    2.153982    0.000496
 ---------------------------------------------------------------------

 SCF Done:  E(RB3LYP) =  -615.659652591     A.U. after    1 cycles

 The electronic state is 1-A.
 Alpha  occ. eigenvalues --  -10.23053 -10.23053 -10.21452 -10.21392 -10.21080
 Alpha  occ. eigenvalues --  -10.21073 -10.21031 -10.21031 -10.21030 -10.21030
 Alpha  occ. eigenvalues --  -10.20866 -10.20866 -10.20767 -10.20766 -10.20752
 Alpha  occ. eigenvalues --  -10.20752  -0.87474  -0.87432  -0.81082  -0.79276
 Alpha  occ. eigenvalues --   -0.76599  -0.76176  -0.76176  -0.72545  -0.65464
 Alpha  occ. eigenvalues --   -0.62989  -0.62059  -0.62055  -0.59181  -0.54903
 Alpha  occ. eigenvalues --   -0.54018  -0.49492  -0.49149  -0.46854  -0.46788
 Alpha  occ. eigenvalues --   -0.44848  -0.44712  -0.43667  -0.43664  -0.39568
 Alpha  occ. eigenvalues --   -0.38995  -0.37274  -0.37212  -0.36635  -0.36264
 Alpha  occ. eigenvalues --   -0.35141  -0.34224  -0.30966  -0.26932  -0.26817
 Alpha  occ. eigenvalues --   -0.26816  -0.25126  -0.21777
 Alpha virt. eigenvalues --   -0.07230  -0.02467  -0.02306  -0.02305  -0.02287
 Alpha virt. eigenvalues --    0.00076   0.00451   0.02125   0.02198   0.02460
 Alpha virt. eigenvalues --    0.03374   0.03912   0.04503   0.04545   0.05467

 Mulliken charges:
               1
     1  C   -0.013998
     2  C   -0.008584
     3  C   -0.317993
     4  C   -0.013980
     5  C   -0.201533
     6  H    0.184232
     7  H    0.196078
     8  H    0.184232
     9  C   -1.144016
    10  C    1.074598
    11  C    1.074611
    12  C   -1.144029
    13  C   -0.008585
    14  C   -0.317849
    15  C   -0.013993
    16  H    0.196076
    17  C   -0.013988
    18  C   -0.201532
    19  H    0.184231
    20  H    0.184232
    21  C   -0.317892
    22  H    0.196077
    23  H    0.182778
    24  H    0.182779
    25  C   -0.318032
    26  H    0.196079
 Sum of Mulliken charges =   0.00000

 Dipole moment (field-independent basis, Debye):
    X=              0.0000    Y=              0.0000    Z=              0.0001  Tot=              0.0001
 Quadrupole moment (field-independent basis, Debye-Ang):
   XX=            -63.4540   YY=            -82.7023   ZZ=           -100.3951
   XY=              0.0000   XZ=              0.0000   YZ=              0.0000

  Exact polarizability: 479.595  -0.001 165.145   0.000   0.000  91.843
 Approx polarizability: 698.103  -0.005 274.328   0.000   0.000 132.693

                      1                      2                      3
                      A                      A                      A
 Frequencies --      9.6712                29.0206                34.3075
 Red. masses --      3.6536                 5.3757                 6.3565
 Frc consts  --      0.0002                 0.0027                 0.0044
 IR Inten    --      0.0000                 0.8167                 1.2682

                      4                      5                      6
                      A                      A                      A
 Frequencies --     80.8576                96.2739               194.9390
 Red. masses --      5.2911                 5.4690                 5.5392
 Frc consts  --      0.0204                 0.0299                 0.1240
 IR Inten    --      0.0000                 0.0000                 0.0908

                      7                      8                      9
                      A                      A                      A
 Frequencies --    223.9876               230.4063               320.8746
 Red. masses --      7.4246                 6.5849                 5.4221
 Frc consts  --      0.2195                 0.2060                 0.3289
 IR Inten    --      0.0036                 0.0000                 0.0000

                     10                     11                     12
                      A                      A                      A
 Frequencies --    409.6865               411.2444               435.1051
 Red. masses --      2.9178                 2.9178                 4.2892
 Frc consts  --      0.2885                 0.2907                 0.4784
 IR Inten    --      0.0000                 0.0000                 6.2228

                     13                     14                     15
                      A                      A                      A
 Frequencies --    465.0644               475.0812               518.7495
 Red. masses --      7.3414                 8.2769                 8.0537
 Frc consts  --      0.9355                 1.1007                 1.2769
 IR Inten    --      0.0000                19.4674                 1.9387

                     16                     17                     18
                      A                      A                      A
 Frequencies --    528.4110               611.9261               620.4008
 Red. masses --      3.5428                 4.3581                 8.1176
 Frc consts  --      0.5828                 0.9615                 1.8409
 IR Inten    --      0.0000                15.6857                 0.0000

                     19                     20                     21
                      A                      A                      A
 Frequencies --    634.3435               646.2332               676.3683
 Red. masses --      6.5985                 8.6166                 6.8081
 Frc consts  --      1.5644                 2.1201                 1.8350
 IR Inten    --      0.0002                 0.0000                 0.0000

                     22                     23                     24
                      A                      A                      A
 Frequencies --    698.9815               699.4327               758.4387
 Red. masses --      1.9498                 1.9160                 2.0371
 Frc consts  --      0.5613                 0.5522                 0.6904
 IR Inten    --      0.0000                75.5831                 0.0000

                     25                     26                     27
                      A                      A                      A
 Frequencies --    774.0823               780.3902               801.4519
 Red. masses --      1.8561                 6.0343                 5.4622
 Frc consts  --      0.6553                 2.1652                 2.0672
 IR Inten    --     89.3072                 7.8643                 0.0000

                     28                     29                     30
                      A                      A                      A
 Frequencies --    853.1323               853.2538               931.5027
 Red. masses --      1.2478                 1.2473                 1.4155
 Frc consts  --      0.5351                 0.5350                 0.7237
 IR Inten    --      0.0000                 0.0000                 0.0018

                     31                     32                     33
                      A                      A                      A
 Frequencies --    931.5305               980.2962               980.3334
 Red. masses --      1.4117                 1.3637                 1.3639
 Frc consts  --      0.7218                 0.7721                 0.7723
 IR Inten    --      5.9125                 0.0000                 0.0000

                     34                     35                     36
                      A                      A                      A
 Frequencies --    997.8946              1002.7455              1002.7636
 Red. masses --      7.3580                 1.2845                 1.2844
 Frc consts  --      4.3170                 0.7609                 0.7610
 IR Inten    --      0.0000                 0.0000                 0.0448

                     37                     38                     39
                      A                      A                      A
 Frequencies --   1012.1763              1015.8446              1051.7769
 Red. masses --      6.2558                 6.7850                 2.2549
 Frc consts  --      3.7761                 4.1253                 1.4697
 IR Inten    --      0.2857                 0.0000                12.0954

                     40                     41                     42
                      A                      A                      A
 Frequencies --   1057.6126              1109.6049              1109.6868
 Red. masses --      1.9571                 1.6273                 1.6283
 Frc consts  --      1.2898                 1.1805                 1.1813
 IR Inten    --      0.0000                 0.0000                 9.6299

                     43                     44                     45
                      A                      A                      A
 Frequencies --   1200.5386              1200.5471              1215.1959
 Red. masses --      1.1085                 1.1085                 1.2023
 Frc consts  --      0.9413                 0.9414                 1.0460
 IR Inten    --      0.0001                 0.0283                 0.2001

                     46                     47                     48
                      A                      A                      A
 Frequencies --   1216.9458              1232.9060              1325.0361
 Red. masses --      1.1435                 3.4707                 3.3305
 Frc consts  --      0.9978                 3.1083                 3.4452
 IR Inten    --      0.0000                 8.2310                 0.1983

                     49                     50                     51
                      A                      A                      A
 Frequencies --   1325.1605              1364.3624              1364.3899
 Red. masses --      3.3357                 1.6853                 1.6867
 Frc consts  --      3.4512                 1.8484                 1.8500
 IR Inten    --      0.0000                 0.0000                 0.9288

                     52                     53                     54
                      A                      A                      A
 Frequencies --   1386.9863              1480.7219              1480.8320
 Red. masses --      4.2201                 2.1897                 2.1907
 Frc consts  --      4.7832                 2.8287                 2.8304
 IR Inten    --      0.0000                 8.7249                 0.0001

                     55                     56                     57
                      A                      A                      A
 Frequencies --   1529.3144              1540.9249              1615.1182
 Red. masses --      2.1337                 2.4824                 4.8951
 Frc consts  --      2.9403                 3.4729                 7.5236
 IR Inten    --     36.2818                 0.0000                 2.2088

                     58                     59                     60
                      A                      A                      A
 Frequencies --   1615.1295              1646.8218              1647.1821
 Red. masses --      4.9000                 5.2784                 5.2854
 Frc consts  --      7.5312                 8.4342                 8.4491
 IR Inten    --      0.0246                20.8060                 0.0000

                     61                     62                     63
                      A                      A                      A
 Frequencies --   2236.6372              2313.1714              3180.7639
 Red. masses --     11.9983                11.9956                 1.0857
 Frc consts  --     35.3641                37.8169                 6.4716
 IR Inten    --      0.1906                 0.0000                 4.9289

                     64                     65                     66
                      A                      A                      A
 Frequencies --   3180.8022              3189.5459              3189.5482
 Red. masses --      1.0857                 1.0887                 1.0887
 Frc consts  --      6.4718                 6.5257                 6.5257
 IR Inten    --      0.0010                 0.5262                11.9382

                     67                     68                     69
                      A                      A                      A
 Frequencies --   3201.0453              3201.0747              3208.7954
 Red. masses --      1.0922                 1.0922                 1.0942
 Frc consts  --      6.5938                 6.5937                 6.6379
 IR Inten    --     42.9456                 0.0419                 0.0961

                     70                     71                     72
                      A                      A                      A
 Frequencies --   3208.8295              3212.9381              3213.0681
 Red. masses --      1.0942                 1.0973                 1.0974
 Frc consts  --      6.6380                 6.6742                 6.6750
 IR Inten    --     43.1305                31.4962                 0.0010

 - Thermochemistry -
 -------------------
 Temperature   298.150 Kelvin.  Pressure   1.00000 Atm.
 Atom     1 has atomic number  6 and mass  12.00000

 Molecular mass:   202.07825 amu.
 Principal axes and moments of inertia in atomic units:
                           1         2         3
     Eigenvalues --   638.37011********************
           X            1.00000   0.00000   0.00000
           Y            0.00000   1.00000   0.00000
           Z            0.00000   0.00000   1.00000
 This molecule is an asymmetric top.
 Rotational symmetry number  1.
 Warning -- assumption of classical behavior for rotation
           may cause significant error
 Rotational temperatures (Kelvin)      0.13568     0.00644     0.00615
 Rotational constants (GHZ):           2.82711     0.13417     0.12809
 Zero-point vibrational energy     532219.9 (Joules/Mol)
                                  127.20361 (Kcal/Mol)
 Warning -- explicit consideration of  18 degrees of freedom as
           vibrations may cause significant error
 Vibrational temperatures:     13.91    41.75    49.36   116.34   138.52
          (Kelvin)            280.47   322.27   331.50   461.67   589.45
                              591.69   626.02   669.12   683.54   746.36
                              760.27   880.43   892.62   912.68   929.79
                              973.14  1005.68  1006.33  1091.22  1113.73
                             1122.81  1153.11  1227.47  1227.64  1340.22
                             1340.26  1410.43  1410.48  1435.75  1442.73
                             1442.75  1456.30  1461.57  1513.27  1521.67
                             1596.47  1596.59  1727.31  1727.32  1748.40
                             1750.91  1773.88  1906.43  1906.61  1963.01
                             1963.05  1995.56  2130.43  2130.59  2200.34
                             2217.05  2323.79  2323.81  2369.41  2369.93
                             3218.02  3328.14  4576.41  4576.46  4589.05
                             4589.05  4605.59  4605.63  4616.74  4616.79
                             4622.70  4622.89

 Zero-point correction=                           0.202712 (Hartree/Particle)
 Thermal correction to Energy=                    0.215531
 Thermal correction to Enthalpy=                  0.216475
 Thermal correction to Gibbs Free Energy=         0.159494
 Sum of electronic and zero-point Energies=           -615.456941
 Sum of electronic and thermal Energies=              -615.444122
 Sum of electronic and thermal Enthalpies=            -615.443177
 Sum of electronic and thermal Free Energies=         -615.500158

                     E (Thermal)             CV                S
                      KCal/Mol        Cal/Mol-Kelvin    Cal/Mol-Kelvin
 Total                  135.248             49.384            119.927
 Electronic               0.000              0.000              0.000
 Translational            0.889              2.981             41.815
 Rotational               0.889              2.981             33.159
 Vibrational            133.470             43.422             44.953
 Vibration     1          0.593              1.987              8.077
 Vibration     2          0.593              1.984              5.895
 Vibration     3          0.594              1.983              5.563
 Vibration     4          0.600              1.962              3.870
 Vibration     5          0.603              1.952              3.528
 Vibration     6          0.636              1.847              2.180
 Vibration     7          0.649              1.805              1.927
 Vibration     8          0.652              1.795              1.876
 Vibration     9          0.706              1.634              1.306
 Vibration    10          0.774              1.449              0.928
 Vibration    11          0.775              1.446              0.922
 Vibration    12          0.796              1.394              0.842
 Vibration    13          0.823              1.328              0.752
 Vibration    14          0.832              1.305              0.723
 Vibration    15          0.874              1.208              0.613
 Vibration    16          0.883              1.187              0.591
 Vibration    17          0.971              1.007              0.430
 Vibration    18          0.980              0.989              0.416

 Optimization completed.
    -- Stationary point found.
 Normal termination of Gaussian 16 at Mon Sep 18 06:43:15 2023.
