 Gaussian 16, Revision B.01,
 Gaussian 16:  EM64L-G16RevB.01 20-Dec-2017

 ---------------------------------------------------------
 # opt freq b3lyp/6-31+g(d) empiricaldispersion=gd3 volume
 ---------------------------------------------------------

 -------------
 ML molecule83
 -------------
 Symbolic Z-matrix:
 Charge =  0 Multiplicity = 1

 SCF Done:  E(RB3LYP) =  -670.017364305     A.U. after   16 cycles
 SCF Done:  E(RB3LYP) =  -664.094239970     A.U. after   19 cycles
 SCF Done:  E(RB3LYP) =  -669.928374157     A.U. after   16 cycles
 SCF Done:  E(RB3LYP) =  -670.061257888     A.U. after   14 cycles
 SCF Done:  E(RB3LYP) =  -670.070649045     A.U. after   14 cycles
 SCF Done:  E(RB3LYP) =  -670.073827272     A.U. after   14 cycles
 SCF Done:  E(RB3LYP) =  -670.086285431     A.U. after   14 cycles
 SCF Done:  E(RB3LYP) =  -670.085264131     A.U. after   16 cycles
 SCF Done:  E(RB3LYP) =  -670.098369504     A.U. after   14 cycles
 SCF Done:  E(RB3LYP) =  -670.102458997     A.U. after   13 cycles
 SCF Done:  E(RB3LYP) =  -670.119640279     A.U. after   12 cycles
 SCF Done:  E(RB3LYP) =  -670.119640370     A.U. after   11 cycles
 SCF Done:  E(RB3LYP) =  -670.119640501     A.U. after    9 cycles
 SCF Done:  E(RB3LYP) =  -670.119640582     A.U. after   11 cycles
 SCF Done:  E(RB3LYP) =  -670.119640584     A.U. after   11 cycles
 SCF Done:  E(RB3LYP) =  -670.119640536     A.U. after   11 cycles
 SCF Done:  E(RB3LYP) =  -670.119640621     A.U. after   10 cycles
 SCF Done:  E(RB3LYP) =  -670.119640623     A.U. after    9 cycles
 SCF Done:  E(RB3LYP) =  -670.119640624     A.U. after    8 cycles
 Optimization completed on the basis of negligible forces.
    -- Stationary point found.
 Normal termination of Gaussian 16 at Fri Sep 15 16:31:03 2023.

 ---------------------------------------------------------------------
 #N Geom=AllCheck Guess=TCheck SCRF=Check GenChk RB3LYP/6-31+G(d) Freq
 ---------------------------------------------------------------------

 Structure from the checkpoint file:  "molecule_83.chk"
 -------------
 ML molecule83
 -------------
 Charge =  0 Multiplicity = 1

                         Standard orientation:
 ---------------------------------------------------------------------
 Center     Atomic      Atomic             Coordinates (Angstroms)
 Number     Number       Type             X           Y           Z
 ---------------------------------------------------------------------
      1          6           0       -3.914071   -0.521522   -0.000096
      2          6           0       -3.280991   -0.176681    1.203646
      3          6           0       -2.051818    0.486673    1.212534
      4          6           0       -1.447443    0.811614    0.000201
      5          6           0       -2.052914    0.489312   -1.212217
      6          6           0       -3.282144   -0.174079   -1.203622
      7          1           0       -3.756712   -0.425387    2.149711
      8          1           0       -1.565396    0.763789   -2.143029
      9          1           0       -3.758709   -0.420728   -2.149790
     10          8           0       -0.250456    1.528132    0.000399
     11          6           0        0.938652    0.848505    0.000197
     12          6           0        1.037542   -0.549225   -0.000906
     13          6           0        2.094189    1.643803    0.001095
     14          6           0        2.296472   -1.145692   -0.001096
     15          6           0        3.346124    1.044738    0.000900
     16          1           0        1.986102    2.723764    0.001932
     17          6           0        3.460696   -0.359612   -0.000196
     18          1           0        2.379571   -2.228299   -0.001959
     19          1           0        4.242434    1.657334    0.001598
     20          1           0       -1.563421    0.759149    2.143474
     21          1           0        0.143068   -1.161567   -0.001617
     22          6           0        4.751767   -0.979886   -0.000392
     23          7           0        5.801676   -1.483749   -0.000549
     24          6           0       -5.228918   -1.267646   -0.000031
     25          1           0       -5.064696   -2.353663    0.005476
     26          1           0       -5.828832   -1.023418    0.883548
     27          1           0       -5.824360   -1.031577   -0.888797
 ---------------------------------------------------------------------

 SCF Done:  E(RB3LYP) =  -670.119640624     A.U. after    1 cycles

 The electronic state is 1-A.
 Alpha  occ. eigenvalues --  -19.21597 -14.34141 -10.28534 -10.26866 -10.24234
 Alpha  occ. eigenvalues --  -10.23419 -10.22976 -10.22878 -10.22141 -10.21882
 Alpha  occ. eigenvalues --  -10.21730 -10.21510 -10.21509 -10.21383 -10.21382
 Alpha  occ. eigenvalues --  -10.20197  -1.10423  -0.91212  -0.88791  -0.87598
 Alpha  occ. eigenvalues --   -0.80513  -0.78136  -0.77596  -0.77116  -0.71038
 Alpha  occ. eigenvalues --   -0.65945  -0.64732  -0.63796  -0.60379  -0.57393
 Alpha  occ. eigenvalues --   -0.56553  -0.51197  -0.50151  -0.49510  -0.47354
 Alpha  occ. eigenvalues --   -0.46717  -0.45398  -0.44592  -0.43819  -0.43329
 Alpha  occ. eigenvalues --   -0.42952  -0.41957  -0.40737  -0.38626  -0.38528
 Alpha  occ. eigenvalues --   -0.37742  -0.36468  -0.36385  -0.35862  -0.33522
 Alpha  occ. eigenvalues --   -0.33074  -0.28546  -0.27617  -0.25904  -0.24932
 Alpha virt. eigenvalues --   -0.05242  -0.04210  -0.02878  -0.02817  -0.00736
 Alpha virt. eigenvalues --    0.00332   0.01371   0.01388   0.01971   0.02522
 Alpha virt. eigenvalues --    0.03057   0.03544   0.03609   0.04217   0.04871

 Mulliken charges:
               1
     1  C    0.307135
     2  C   -0.295261
     3  C    0.052394
     4  C    0.052134
     5  C    0.050670
     6  C   -0.307419
     7  H    0.182266
     8  H    0.194063
     9  H    0.182229
    10  O   -0.319791
    11  C   -0.340351
    12  C    0.919336
    13  C   -0.126229
    14  C   -0.882002
    15  C   -0.402645
    16  H    0.202797
    17  C    0.554225
    18  H    0.206929
    19  H    0.207782
    20  H    0.194059
    21  H    0.215580
    22  C   -0.172100
    23  N   -0.540644
    24  C   -0.787382
    25  H    0.229168
    26  H    0.211650
    27  H    0.211407
 Sum of Mulliken charges =   0.00000

 Dipole moment (field-independent basis, Debye):
    X=             -6.2660    Y=              0.7913    Z=              0.0013  Tot=              6.3158
 Quadrupole moment (field-independent basis, Debye-Ang):
   XX=           -119.1508   YY=            -94.2431   ZZ=            -90.4479
   XY=             18.2950   XZ=              0.0068   YZ=             -0.0039

  Exact polarizability: 259.254   2.656 142.315   0.010  -0.012 125.193
 Approx polarizability: 345.971   0.193 240.513   0.024  -0.024 207.032

                      1                      2                      3
                      A                      A                      A
 Frequencies --      8.1027                13.4697                45.9605
 Red. masses --      3.3228                 1.1072                 3.7054
 Frc consts  --      0.0001                 0.0001                 0.0046
 IR Inten    --      0.0020                 0.4091                 0.0002

                      4                      5                      6
                      A                      A                      A
 Frequencies --     48.5383                94.4165               133.6517
 Red. masses --      5.1293                 8.5500                 6.5017
 Frc consts  --      0.0071                 0.0449                 0.0684
 IR Inten    --      0.4720                 4.3430                 4.8700

                      7                      8                      9
                      A                      A                      A
 Frequencies --    172.4280               244.9971               287.2184
 Red. masses --      5.1562                 6.6501                 5.8015
 Frc consts  --      0.0903                 0.2352                 0.2820
 IR Inten    --      1.2566                 1.0576                 1.3179

                     10                     11                     12
                      A                      A                      A
 Frequencies --    321.7852               327.2085               419.4346
 Red. masses --      3.5205                 4.4998                 3.0702
 Frc consts  --      0.2148                 0.2839                 0.3182
 IR Inten    --      0.1212                 0.7425                 0.0024

                     13                     14                     15
                      A                      A                      A
 Frequencies --    424.1918               430.8354               446.6781
 Red. masses --      3.1873                 3.7610                 6.6480
 Frc consts  --      0.3379                 0.4113                 0.7815
 IR Inten    --      0.4874                 2.4789                 3.6810

                     16                     17                     18
                      A                      A                      A
 Frequencies --    478.9062               497.7178               555.1635
 Red. masses --      5.0641                 3.9699                 6.6404
 Frc consts  --      0.6843                 0.5794                 1.2058
 IR Inten    --      0.0148                13.1982                 1.8815

                     19                     20                     21
                      A                      A                      A
 Frequencies --    559.5137               581.2341               651.8903
 Red. masses --      3.2879                 4.0143                 6.8215
 Frc consts  --      0.6064                 0.7990                 1.7080
 IR Inten    --     19.2935                 4.7832                 0.4065

                     22                     23                     24
                      A                      A                      A
 Frequencies --    653.3993               690.6591               717.5852
 Red. masses --      6.9479                 5.2785                 4.2160
 Frc consts  --      1.7477                 1.4835                 1.2791
 IR Inten    --      0.0252                 4.1319                 0.4240

                     25                     26                     27
                      A                      A                      A
 Frequencies --    728.3433               768.9110               827.5206
 Red. masses --      3.0913                 4.6369                 3.7178
 Frc consts  --      0.9662                 1.6152                 1.5000
 IR Inten    --      0.8988                 4.8656                 8.5827

                     28                     29                     30
                      A                      A                      A
 Frequencies --    831.4348               840.7820               849.1573
 Red. masses --      1.2518                 1.2624                 1.6077
 Frc consts  --      0.5099                 0.5258                 0.6830
 IR Inten    --      0.7141                 3.3672                51.5142

                     31                     32                     33
                      A                      A                      A
 Frequencies --    857.8760               890.8776               959.7536
 Red. masses --      2.0962                 6.5576                 1.3151
 Frc consts  --      0.9089                 3.0664                 0.7137
 IR Inten    --     38.0960                33.6801                 1.3246

                     34                     35                     36
                      A                      A                      A
 Frequencies --    965.0460               973.1942               976.0782
 Red. masses --      1.3029                 1.3500                 1.3355
 Frc consts  --      0.7149                 0.7533                 0.7496
 IR Inten    --      0.6454                 0.0152                 0.0606

                     37                     38                     39
                      A                      A                      A
 Frequencies --   1022.0015              1030.7290              1038.1915
 Red. masses --      1.3936                 2.7247                 2.7228
 Frc consts  --      0.8576                 1.7055                 1.7291
 IR Inten    --      0.0701                 1.2088                15.2115

                     40                     41                     42
                      A                      A                      A
 Frequencies --   1073.1518              1142.0203              1150.0606
 Red. masses --      1.5183                 1.2928                 1.3185
 Frc consts  --      1.0302                 0.9934                 1.0275
 IR Inten    --      8.6798                 7.7737                 7.2084

                     43                     44                     45
                      A                      A                      A
 Frequencies --   1196.3955              1206.2403              1228.4320
 Red. masses --      1.4630                 1.3054                 3.1442
 Frc consts  --      1.2338                 1.1191                 2.7956
 IR Inten    --      6.4702                72.7574                 0.2687

                     46                     47                     48
                      A                      A                      A
 Frequencies --   1231.4780              1235.4679              1285.4909
 Red. masses --      3.9127                 1.9507                 5.2071
 Frc consts  --      3.4960                 1.7543                 5.0697
 IR Inten    --     10.4672                40.7286               539.7641

                     49                     50                     51
                      A                      A                      A
 Frequencies --   1334.5484              1339.2052              1343.5268
 Red. masses --      1.7979                 1.9676                 2.7279
 Frc consts  --      1.8866                 2.0792                 2.9012
 IR Inten    --      0.5314                22.8466                10.7818

                     52                     53                     54
                      A                      A                      A
 Frequencies --   1343.5651              1440.8386              1447.5885
 Red. masses --      3.0035                 1.2316                 2.5848
 Frc consts  --      3.1945                 1.5064                 3.1913
 IR Inten    --      0.7438                 0.8538                 0.2142

                     55                     56                     57
                      A                      A                      A
 Frequencies --   1459.9240              1513.7413              1514.4967
 Red. masses --      3.0751                 1.0525                 1.0975
 Frc consts  --      3.8616                 1.4209                 1.4832
 IR Inten    --      5.2714                 9.6404                 8.8096

                     58                     59                     60
                      A                      A                      A
 Frequencies --   1542.4457              1553.0409              1612.6515
 Red. masses --      2.4077                 2.5254                 6.7417
 Frc consts  --      3.3750                 3.5887                10.3300
 IR Inten    --    299.0640                33.7886                 7.8475

                     61                     62                     63
                      A                      A                      A
 Frequencies --   1633.6440              1650.6970              1664.7307
 Red. masses --      6.2506                 5.5482                 5.7554
 Frc consts  --      9.8285                 8.9071                 9.3975
 IR Inten    --      3.5959               140.3492                36.7826

                     64                     65                     66
                      A                      A                      A
 Frequencies --   2329.9864              3036.5575              3093.0033
 Red. masses --     12.6784                 1.0402                 1.0960
 Frc consts  --     40.5528                 5.6510                 6.1778
 IR Inten    --     90.2894                34.1513                19.1985

                     67                     68                     69
                      A                      A                      A
 Frequencies --   3117.9797              3179.8328              3180.3535
 Red. masses --      1.1027                 1.0892                 1.0891
 Frc consts  --      6.3164                 6.4887                 6.4902
 IR Inten    --     15.7158                13.7472                18.6525

                     70                     71                     72
                      A                      A                      A
 Frequencies --   3206.6749              3208.0608              3209.0695
 Red. masses --      1.0890                 1.0899                 1.0935
 Frc consts  --      6.5976                 6.6088                 6.6350
 IR Inten    --      4.6014                 1.7571                 8.3603

                     73                     74                     75
                      A                      A                      A
 Frequencies --   3210.1099              3222.0774              3229.9001
 Red. masses --      1.0941                 1.0954                 1.0932
 Frc consts  --      6.6428                 6.7004                 6.7195
 IR Inten    --      1.9296                 3.2267                 1.4539

 - Thermochemistry -
 -------------------
 Temperature   298.150 Kelvin.  Pressure   1.00000 Atm.
 Atom     1 has atomic number  6 and mass  12.00000

 Molecular mass:   209.08406 amu.
 Principal axes and moments of inertia in atomic units:
                           1         2         3
     Eigenvalues --  1097.053698220.524888673.33509
           X            0.99987   0.01588   0.00001
           Y           -0.01588   0.99987  -0.00004
           Z           -0.00001   0.00004   1.00000
 This molecule is an asymmetric top.
 Rotational symmetry number  1.
 Warning -- assumption of classical behavior for rotation
           may cause significant error
 Rotational temperatures (Kelvin)      0.07895     0.01054     0.00999
 Rotational constants (GHZ):           1.64508     0.21954     0.20808
 Zero-point vibrational energy     554659.8 (Joules/Mol)
                                  132.56686 (Kcal/Mol)
 Warning -- explicit consideration of  20 degrees of freedom as
           vibrations may cause significant error
 Vibrational temperatures:     11.66    19.38    66.13    69.84   135.84
          (Kelvin)            192.29   248.09   352.50   413.24   462.98
                              470.78   603.47   610.32   619.88   642.67
                              689.04   716.10   798.76   805.02   836.27
                              937.92   940.10   993.70  1032.45  1047.92
                             1106.29  1190.62  1196.25  1209.70  1221.75
                             1234.29  1281.77  1380.87  1388.49  1400.21
                             1404.36  1470.43  1482.99  1493.73  1544.03
                             1643.11  1654.68  1721.35  1735.51  1767.44
                             1771.82  1777.56  1849.53  1920.12  1926.82
                             1933.04  1933.09  2073.05  2082.76  2100.50
                             2177.94  2179.02  2219.24  2234.48  2320.25
                             2350.45  2374.98  2395.18  3352.33  4368.93
                             4450.14  4486.08  4575.07  4575.82  4613.69
                             4615.68  4617.14  4618.63  4635.85  4647.11

 Zero-point correction=                           0.211259 (Hartree/Particle)
 Thermal correction to Energy=                    0.225056
 Thermal correction to Enthalpy=                  0.226000
 Thermal correction to Gibbs Free Energy=         0.166350
 Sum of electronic and zero-point Energies=           -669.908382
 Sum of electronic and thermal Energies=              -669.894585
 Sum of electronic and thermal Enthalpies=            -669.893640
 Sum of electronic and thermal Free Energies=         -669.953291

                     E (Thermal)             CV                S
                      KCal/Mol        Cal/Mol-Kelvin    Cal/Mol-Kelvin
 Total                  141.225             52.095            125.545
 Electronic               0.000              0.000              0.000
 Translational            0.889              2.981             41.917
 Rotational               0.889              2.981             32.725
 Vibrational            139.447             46.133             50.903
 Vibration     1          0.593              1.987              8.429
 Vibration     2          0.593              1.987              7.419
 Vibration     3          0.595              1.979              4.984
 Vibration     4          0.595              1.978              4.876
 Vibration     5          0.603              1.953              3.566
 Vibration     6          0.613              1.920              2.893
 Vibration     7          0.626              1.876              2.409
 Vibration     8          0.660              1.771              1.766
 Vibration     9          0.684              1.697              1.490
 Vibration    10          0.707              1.632              1.301
 Vibration    11          0.711              1.621              1.274
 Vibration    12          0.782              1.428              0.894
 Vibration    13          0.786              1.418              0.878
 Vibration    14          0.792              1.403              0.856
 Vibration    15          0.806              1.368              0.806
 Vibration    16          0.835              1.297              0.713
 Vibration    17          0.853              1.255              0.664
 Vibration    18          0.911              1.128              0.534
 Vibration    19          0.915              1.119              0.525
 Vibration    20          0.938              1.072              0.483

 Optimization completed on the basis of negligible forces.
    -- Stationary point found.
 Normal termination of Gaussian 16 at Fri Sep 15 16:35:40 2023.
