 Gaussian 16, Revision B.01,
 Gaussian 16:  EM64L-G16RevB.01 20-Dec-2017

 ----------------------------------------------------------------------
 # opt freq b3lyp/6-31+g(d) geom=connectivity empiricaldispersion=gd3 v
 olume
 ----------------------------------------------------------------------

 --------------
 ML molecule115
 --------------
 Symbolic Z-matrix:
 Charge =  0 Multiplicity = 1

 SCF Done:  E(RB3LYP) =  -844.797215869     A.U. after   16 cycles
 SCF Done:  E(RB3LYP) =  -844.830019801     A.U. after   17 cycles
 SCF Done:  E(RB3LYP) =  -844.840106868     A.U. after   16 cycles
 SCF Done:  E(RB3LYP) =  -844.846739860     A.U. after   17 cycles
 SCF Done:  E(RB3LYP) =  -844.854138897     A.U. after   17 cycles
 SCF Done:  E(RB3LYP) =  -844.860761033     A.U. after   17 cycles
 SCF Done:  E(RB3LYP) =  -844.862592751     A.U. after   16 cycles
 SCF Done:  E(RB3LYP) =  -844.861185531     A.U. after   17 cycles
 SCF Done:  E(RB3LYP) =  -844.863260496     A.U. after   15 cycles
 SCF Done:  E(RB3LYP) =  -844.863490900     A.U. after   17 cycles
 SCF Done:  E(RB3LYP) =  -844.863356187     A.U. after   16 cycles
 SCF Done:  E(RB3LYP) =  -844.863930543     A.U. after   15 cycles
 SCF Done:  E(RB3LYP) =  -844.864275092     A.U. after   12 cycles
 SCF Done:  E(RB3LYP) =  -844.863657827     A.U. after   16 cycles
 SCF Done:  E(RB3LYP) =  -844.864306129     A.U. after   15 cycles
 SCF Done:  E(RB3LYP) =  -844.864314344     A.U. after   13 cycles
 SCF Done:  E(RB3LYP) =  -844.864314584     A.U. after   11 cycles
 SCF Done:  E(RB3LYP) =  -844.864314647     A.U. after   10 cycles
 SCF Done:  E(RB3LYP) =  -844.864314677     A.U. after    9 cycles
 Optimization completed.
    -- Stationary point found.
 Normal termination of Gaussian 16 at Fri Sep 15 12:53:56 2023.

 ---------------------------------------------------------------------
 #N Geom=AllCheck Guess=TCheck SCRF=Check GenChk RB3LYP/6-31+G(d) Freq
 ---------------------------------------------------------------------

 Structure from the checkpoint file:  "molecule_115.chk"
 --------------
 ML molecule115
 --------------
 Charge =  0 Multiplicity = 1

                         Standard orientation:
 ---------------------------------------------------------------------
 Center     Atomic      Atomic             Coordinates (Angstroms)
 Number     Number       Type             X           Y           Z
 ---------------------------------------------------------------------
      1          6           0       -3.837073   -0.119706    0.120157
      2          6           0       -3.671041    1.243512   -0.192690
      3          6           0       -2.406510    1.805416   -0.291467
      4          6           0       -1.274055    1.006553   -0.075972
      5          6           0       -1.411505   -0.349335    0.243306
      6          6           0       -2.689970   -0.899648    0.336551
      7          1           0       -4.557694    1.847082   -0.359682
      8          1           0       -0.534247   -0.961750    0.421080
      9          1           0       -2.779300   -1.952221    0.587117
     10          1           0       -2.267832    2.854642   -0.533890
     11          6           0        1.297439    0.134102   -1.482062
     12          6           0        1.102003    0.902408   -0.306745
     13          6           0        2.483616   -0.540977   -1.657714
     14          6           0        2.073355    0.997827    0.659724
     15          6           0        3.519238   -0.475702   -0.683155
     16          1           0        2.644737   -1.130421   -2.557409
     17          6           0        3.309666    0.314266    0.495757
     18          1           0        1.891145    1.601811    1.544117
     19          6           0        4.753675   -1.161807   -0.841880
     20          6           0        4.344885    0.384738    1.467741
     21          6           0        5.738776   -1.074954    0.119287
     22          1           0        4.910036   -1.758515   -1.737965
     23          6           0        5.531175   -0.294347    1.284666
     24          1           0        4.185765    0.984540    2.361014
     25          1           0        6.678637   -1.604147   -0.013708
     26          1           0        6.314257   -0.232002    2.035820
     27          1           0        0.507219    0.094413   -2.225593
     28          8           0       -0.061896    1.646627   -0.157061
     29          6           0       -5.221045   -0.674445    0.209248
     30          8           0       -6.198873    0.037936    0.011780
     31          6           0       -5.402832   -2.145250    0.550811
     32          1           0       -6.470771   -2.370885    0.573270
     33          1           0       -4.912537   -2.785440   -0.193048
     34          1           0       -4.962051   -2.379524    1.527752
 ---------------------------------------------------------------------

 SCF Done:  E(RB3LYP) =  -844.864314677     A.U. after    1 cycles

 The electronic state is 1-A.
 Alpha  occ. eigenvalues --  -19.21171 -19.14351 -10.28273 -10.27655 -10.26862
 Alpha  occ. eigenvalues --  -10.22004 -10.21831 -10.21732 -10.21507 -10.21333
 Alpha  occ. eigenvalues --  -10.21026 -10.20981 -10.20938 -10.20913 -10.20896
 Alpha  occ. eigenvalues --  -10.20809 -10.20784 -10.20767 -10.20639 -10.19457
 Alpha  occ. eigenvalues --   -1.09996  -1.04057  -0.89262  -0.87446  -0.83870
 Alpha  occ. eigenvalues --   -0.79521  -0.78328  -0.76806  -0.75749  -0.74373
 Alpha  occ. eigenvalues --   -0.72842  -0.66214  -0.64574  -0.63348  -0.61521
 Alpha  occ. eigenvalues --   -0.61178  -0.56589  -0.56393  -0.53264  -0.52372
 Alpha  occ. eigenvalues --   -0.50242  -0.49114  -0.47961  -0.46816  -0.46458
 Alpha  occ. eigenvalues --   -0.45572  -0.44848  -0.44313  -0.44187  -0.43485
 Alpha  occ. eigenvalues --   -0.43018  -0.41933  -0.41299  -0.41133  -0.39909
 Alpha  occ. eigenvalues --   -0.39171  -0.38476  -0.37351  -0.36562  -0.35826
 Alpha  occ. eigenvalues --   -0.35337  -0.34216  -0.33077  -0.30216  -0.27349
 Alpha  occ. eigenvalues --   -0.26287  -0.25610  -0.24322  -0.23208
 Alpha virt. eigenvalues --   -0.06496  -0.05689  -0.03316  -0.02439  -0.00473
 Alpha virt. eigenvalues --   -0.00080   0.00365   0.00862   0.01466   0.02456
 Alpha virt. eigenvalues --    0.02583   0.02898   0.03435   0.03953   0.04124

 Mulliken charges:
               1
     1  C    0.710053
     2  C    0.127062
     3  C   -0.349807
     4  C   -0.258081
     5  C   -0.006490
     6  C   -0.999128
     7  H    0.223632
     8  H    0.207410
     9  H    0.186132
    10  H    0.198009
    11  C   -0.006153
    12  C   -0.321844
    13  C   -0.185605
    14  C    0.046783
    15  C    0.311770
    16  H    0.189524
    17  C    0.290447
    18  H    0.195206
    19  C   -0.226984
    20  C   -0.173096
    21  C   -0.357803
    22  H    0.185474
    23  C   -0.331962
    24  H    0.186190
    25  H    0.183098
    26  H    0.183277
    27  H    0.195828
    28  O   -0.313983
    29  C    0.561804
    30  O   -0.446205
    31  C   -0.899870
    32  H    0.241798
    33  H    0.226646
    34  H    0.226868
 Sum of Mulliken charges =   0.00000

 Dipole moment (field-independent basis, Debye):
    X=              4.2269    Y=             -2.3250    Z=              0.2489  Tot=              4.8306
 Quadrupole moment (field-independent basis, Debye-Ang):
   XX=           -135.5764   YY=           -112.3982   ZZ=           -112.1978
   XY=              3.7429   XZ=              0.2246   YZ=              2.5789

  Exact polarizability: 356.891 -18.992 177.795  20.660   7.369 162.433
 Approx polarizability: 486.152 -47.650 301.043  43.759  19.384 276.863

                      1                      2                      3
                      A                      A                      A
 Frequencies --     13.7999                30.3458                46.0748
 Red. masses --      5.6804                 5.1345                 4.1196
 Frc consts  --      0.0006                 0.0028                 0.0052
 IR Inten    --      0.5301                 1.6291                 0.7694

                      4                      5                      6
                      A                      A                      A
 Frequencies --     72.2492                97.3321               126.2662
 Red. masses --      3.9479                 6.5297                 5.2789
 Frc consts  --      0.0121                 0.0364                 0.0496
 IR Inten    --      2.4512                 1.4810                 1.7850

                      7                      8                      9
                      A                      A                      A
 Frequencies --    178.9711               183.5655               190.0853
 Red. masses --      1.0370                 4.8684                 4.5768
 Frc consts  --      0.0196                 0.0967                 0.0974
 IR Inten    --      0.1310                 0.2902                 3.2239

                     10                     11                     12
                      A                      A                      A
 Frequencies --    240.4791               268.6991               307.2142
 Red. masses --      5.2977                 5.2840                 4.9574
 Frc consts  --      0.1805                 0.2248                 0.2757
 IR Inten    --      0.6731                 0.4228                 1.0903

                     13                     14                     15
                      A                      A                      A
 Frequencies --    324.3476               386.0376               408.5178
 Red. masses --      5.5247                 5.3300                 3.3688
 Frc consts  --      0.3424                 0.4680                 0.3312
 IR Inten    --      5.8210                 0.5635                 0.7444

                     16                     17                     18
                      A                      A                      A
 Frequencies --    424.4498               440.5943               467.8783
 Red. masses --      3.0602                 4.7182                 4.1616
 Frc consts  --      0.3248                 0.5396                 0.5368
 IR Inten    --      0.4057                 3.6306                 5.1463

                     19                     20                     21
                      A                      A                      A
 Frequencies --    487.8257               497.9855               517.3993
 Red. masses --      2.6347                 3.2858                 4.6480
 Frc consts  --      0.3694                 0.4801                 0.7331
 IR Inten    --     18.9383                 5.0704                 0.7228

                     22                     23                     24
                      A                      A                      A
 Frequencies --    532.4464               556.0212               595.6054
 Red. masses --      5.2989                 5.3876                 3.6796
 Frc consts  --      0.8851                 0.9814                 0.7691
 IR Inten    --      0.1743                 8.5852                18.4886

                     25                     26                     27
                      A                      A                      A
 Frequencies --    603.4923               627.9970               645.4696
 Red. masses --      2.6726                 5.7741                 6.8773
 Frc consts  --      0.5735                 1.3417                 1.6882
 IR Inten    --     21.2590                 8.9358                 0.1679

                     28                     29                     30
                      A                      A                      A
 Frequencies --    657.6114               704.0402               734.0931
 Red. masses --      3.8175                 3.3074                 4.1164
 Frc consts  --      0.9727                 0.9659                 1.3070
 IR Inten    --      0.3930                 0.7144                 2.8259

                     31                     32                     33
                      A                      A                      A
 Frequencies --    747.9017               765.9143               772.0199
 Red. masses --      3.3212                 1.8671                 2.5210
 Frc consts  --      1.0946                 0.6453                 0.8853
 IR Inten    --      5.5591                25.7062                10.4460

                     34                     35                     36
                      A                      A                      A
 Frequencies --    781.1272               826.0520               832.8163
 Red. masses --      4.8387                 1.4806                 1.3392
 Frc consts  --      1.7395                 0.5952                 0.5473
 IR Inten    --      1.6319                27.2927                 5.1807

                     37                     38                     39
                      A                      A                      A
 Frequencies --    842.0813               858.8366               878.8959
 Red. masses --      3.6379                 1.5393                 1.6584
 Frc consts  --      1.5199                 0.6690                 0.7548
 IR Inten    --      6.1747                46.3223                17.4945

                     40                     41                     42
                      A                      A                      A
 Frequencies --    907.6503               925.2040               962.0311
 Red. masses --      1.6316                 5.0844                 1.3264
 Frc consts  --      0.7920                 2.5643                 0.7233
 IR Inten    --     17.8464                17.3252                 0.5865

                     43                     44                     45
                      A                      A                      A
 Frequencies --    963.8627               967.6367               976.8370
 Red. masses --      1.3186                 2.2555                 1.3573
 Frc consts  --      0.7218                 1.2443                 0.7631
 IR Inten    --      0.7462                74.7649                 2.7991

                     46                     47                     48
                      A                      A                      A
 Frequencies --    985.2855               997.0572               997.6573
 Red. masses --      3.8617                 1.2994                 1.3248
 Frc consts  --      2.2088                 0.7611                 0.7769
 IR Inten    --     42.5729                 0.0209                 0.4251

                     49                     50                     51
                      A                      A                      A
 Frequencies --   1029.4198              1050.4805              1053.3652
 Red. masses --      2.8408                 2.3330                 1.8423
 Frc consts  --      1.7737                 1.5169                 1.2044
 IR Inten    --      4.2465                 1.3288                 0.8069

                     52                     53                     54
                      A                      A                      A
 Frequencies --   1098.4685              1150.7135              1153.5501
 Red. masses --      2.3470                 1.8066                 1.2944
 Frc consts  --      1.6686                 1.4094                 1.0148
 IR Inten    --      3.1041                 7.1466                12.7538

                     55                     56                     57
                      A                      A                      A
 Frequencies --   1181.7537              1187.9157              1196.5287
 Red. masses --      1.2747                 1.5156                 1.2915
 Frc consts  --      1.0489                 1.2601                 1.0894
 IR Inten    --      1.2006                20.3105                 4.3704

                     58                     59                     60
                      A                      A                      A
 Frequencies --   1211.8446              1242.6328              1271.2767
 Red. masses --      1.2793                 2.6319                 2.0556
 Frc consts  --      1.1069                 2.3944                 1.9574
 IR Inten    --    248.1919                 6.5420               166.3980

                     61                     62                     63
                      A                      A                      A
 Frequencies --   1284.1627              1293.5288              1298.5701
 Red. masses --      2.9801                 3.1915                 1.8132
 Frc consts  --      2.8955                 3.1463                 1.8015
 IR Inten    --    717.4681                53.3808                 7.4291

                     64                     65                     66
                      A                      A                      A
 Frequencies --   1343.3384              1357.1620              1393.7633
 Red. masses --      1.3061                 8.8349                 1.9353
 Frc consts  --      1.3887                 9.5877                 2.2150
 IR Inten    --      2.7596                 0.5211                11.1346

                     67                     68                     69
                      A                      A                      A
 Frequencies --   1406.9402              1407.8827              1420.5152
 Red. masses --      4.8378                 1.3733                 4.5007
 Frc consts  --      5.6423                 1.6038                 5.3508
 IR Inten    --      7.9195                38.5891                19.4454

                     70                     71                     72
                      A                      A                      A
 Frequencies --   1460.3323              1481.8049              1496.2293
 Red. masses --      3.0279                 2.4367                 1.0643
 Frc consts  --      3.8045                 3.1524                 1.4039
 IR Inten    --     54.2832                 1.7646                22.8634

                     73                     74                     75
                      A                      A                      A
 Frequencies --   1503.9448              1510.9870              1547.8725
 Red. masses --      1.0473                 2.1997                 2.4189
 Frc consts  --      1.3957                 2.9590                 3.4146
 IR Inten    --     11.9080                76.0838                95.5426

                     76                     77                     78
                      A                      A                      A
 Frequencies --   1555.6783              1616.8944              1623.4158
 Red. masses --      3.2884                 6.5390                 6.9178
 Frc consts  --      4.6889                10.0722                10.7419
 IR Inten    --     27.3637                41.3572                 8.6683

                     79                     80                     81
                      A                      A                      A
 Frequencies --   1645.4782              1658.1529              1683.0155
 Red. masses --      5.4140                 5.3921                 6.2436
 Frc consts  --      8.6368                 8.7349                10.4199
 IR Inten    --    354.9883                53.7573                18.0673

                     82                     83                     84
                      A                      A                      A
 Frequencies --   1745.9281              3046.3483              3105.1733
 Red. masses --     10.3881                 1.0383                 1.0999
 Frc consts  --     18.6568                 5.6770                 6.2487
 IR Inten    --    244.5759                 4.1562                 9.3893

                     85                     86                     87
                      A                      A                      A
 Frequencies --   3160.9615              3174.3649              3178.9760
 Red. masses --      1.1011                 1.0863                 1.0885
 Frc consts  --      6.4820                 6.4496                 6.4814
 IR Inten    --     15.2348                 3.0818                 1.0312

                     88                     89                     90
                      A                      A                      A
 Frequencies --   3182.7283              3193.1882              3202.5511
 Red. masses --      1.0887                 1.0933                 1.0916
 Frc consts  --      6.4976                 6.5681                 6.5966
 IR Inten    --      8.8880                28.4263                 9.4078

                     91                     92                     93
                      A                      A                      A
 Frequencies --   3203.7497              3206.3290              3206.9150
 Red. masses --      1.0880                 1.0968                 1.0888
 Frc consts  --      6.5793                 6.6434                 6.5977
 IR Inten    --     10.8417                27.4746                 0.4618

                     94                     95                     96
                      A                      A                      A
 Frequencies --   3211.8705              3222.3795              3223.4772
 Red. masses --      1.0942                 1.0936                 1.0938
 Frc consts  --      6.6504                 6.6907                 6.6964
 IR Inten    --      5.6670                 5.4384                 3.5065

 - Thermochemistry -
 -------------------
 Temperature   298.150 Kelvin.  Pressure   1.00000 Atm.
 Atom     1 has atomic number  6 and mass  12.00000

 Molecular mass:   262.09938 amu.
 Principal axes and moments of inertia in atomic units:
                           1         2         3
     Eigenvalues --  1645.60516********************
           X            0.99999   0.00432   0.00000
           Y           -0.00432   0.99989   0.01451
           Z            0.00006  -0.01451   0.99989
 This molecule is an asymmetric top.
 Rotational symmetry number  1.
 Warning -- assumption of classical behavior for rotation
           may cause significant error
 Rotational temperatures (Kelvin)      0.05263     0.00612     0.00593
 Rotational constants (GHZ):           1.09670     0.12757     0.12363
 Zero-point vibrational energy     708418.5 (Joules/Mol)
                                  169.31608 (Kcal/Mol)
 Warning -- explicit consideration of  25 degrees of freedom as
           vibrations may cause significant error
 Vibrational temperatures:     19.85    43.66    66.29   103.95   140.04
          (Kelvin)            181.67   257.50   264.11   273.49   346.00
                              386.60   442.01   466.66   555.42   587.77
                              610.69   633.92   673.17   701.87   716.49
                              744.42   766.07   799.99   856.94   868.29
                              903.55   928.69   946.16  1012.96  1056.20
                             1076.06  1101.98  1110.76  1123.87  1188.50
                             1198.24  1211.57  1235.67  1264.54  1305.91
                             1331.16  1384.15  1386.78  1392.21  1405.45
                             1417.61  1434.54  1435.41  1481.11  1511.41
                             1515.56  1580.45  1655.62  1659.70  1700.28
                             1709.15  1721.54  1743.57  1787.87  1829.08
                             1847.62  1861.10  1868.35  1932.76  1952.65
                             2005.31  2024.27  2025.63  2043.80  2101.09
                             2131.99  2152.74  2163.84  2173.97  2227.04
                             2238.27  2326.35  2335.73  2367.48  2385.71
                             2421.48  2512.00  4383.02  4467.65  4547.92
                             4567.20  4573.84  4579.24  4594.29  4607.76
                             4609.48  4613.19  4614.04  4621.17  4636.29
                             4637.86

 Zero-point correction=                           0.269822 (Hartree/Particle)
 Thermal correction to Energy=                    0.285906
 Thermal correction to Enthalpy=                  0.286850
 Thermal correction to Gibbs Free Energy=         0.224001
 Sum of electronic and zero-point Energies=           -844.594492
 Sum of electronic and thermal Energies=              -844.578409
 Sum of electronic and thermal Enthalpies=            -844.577465
 Sum of electronic and thermal Free Energies=         -844.640314

                     E (Thermal)             CV                S
                      KCal/Mol        Cal/Mol-Kelvin    Cal/Mol-Kelvin
 Total                  179.409             64.021            132.278
 Electronic               0.000              0.000              0.000
 Translational            0.889              2.981             42.590
 Rotational               0.889              2.981             34.185
 Vibrational            177.631             58.059             55.503
 Vibration     1          0.593              1.986              7.371
 Vibration     2          0.594              1.984              5.807
 Vibration     3          0.595              1.979              4.979
 Vibration     4          0.598              1.967              4.091
 Vibration     5          0.603              1.951              3.507
 Vibration     6          0.611              1.927              3.002
 Vibration     7          0.629              1.868              2.339
 Vibration     8          0.631              1.862              2.292
 Vibration     9          0.633              1.854              2.227
 Vibration    10          0.658              1.778              1.799
 Vibration    11          0.673              1.731              1.605
 Vibration    12          0.697              1.660              1.377
 Vibration    13          0.709              1.627              1.288
 Vibration    14          0.755              1.500              1.015
 Vibration    15          0.773              1.452              0.932
 Vibration    16          0.786              1.417              0.877
 Vibration    17          0.800              1.382              0.825
 Vibration    18          0.825              1.321              0.744
 Vibration    19          0.844              1.277              0.689
 Vibration    20          0.853              1.254              0.663
 Vibration    21          0.872              1.211              0.616
 Vibration    22          0.887              1.178              0.582
 Vibration    23          0.911              1.127              0.532
 Vibration    24          0.953              1.041              0.457
 Vibration    25          0.962              1.024              0.444

 Optimization completed.
    -- Stationary point found.
 Normal termination of Gaussian 16 at Fri Sep 15 13:04:02 2023.
