 Gaussian 16, Revision B.01,
 Gaussian 16:  EM64L-G16RevB.01 20-Dec-2017

 ----------------------------------------------------------------------
 # opt freq b3lyp/6-31+g(d) geom=connectivity empiricaldispersion=gd3 v
 olume
 ----------------------------------------------------------------------

 -------------
 ML molecule76
 -------------
 Symbolic Z-matrix:
 Charge =  0 Multiplicity = 1

 SCF Done:  E(RB3LYP) =  -1202.62996052     A.U. after   16 cycles
 SCF Done:  E(RB3LYP) =  -1202.63419649     A.U. after   17 cycles
 SCF Done:  E(RB3LYP) =  -1202.63940887     A.U. after   17 cycles
 SCF Done:  E(RB3LYP) =  -1202.64237048     A.U. after   17 cycles
 SCF Done:  E(RB3LYP) =  -1202.64030033     A.U. after   17 cycles
 SCF Done:  E(RB3LYP) =  -1202.64354496     A.U. after   17 cycles
 SCF Done:  E(RB3LYP) =  -1202.64569071     A.U. after   17 cycles
 SCF Done:  E(RB3LYP) =  -1202.64599481     A.U. after   17 cycles
 SCF Done:  E(RB3LYP) =  -1202.64663204     A.U. after   17 cycles
 SCF Done:  E(RB3LYP) =  -1202.64768628     A.U. after   17 cycles
 SCF Done:  E(RB3LYP) =  -1202.65996884     A.U. after   14 cycles
 SCF Done:  E(RB3LYP) =  -1202.65997983     A.U. after   18 cycles
 SCF Done:  E(RB3LYP) =  -1202.66029938     A.U. after   17 cycles
 SCF Done:  E(RB3LYP) =  -1202.66057446     A.U. after   16 cycles
 SCF Done:  E(RB3LYP) =  -1202.66070403     A.U. after   15 cycles
 SCF Done:  E(RB3LYP) =  -1202.66073168     A.U. after   14 cycles
 SCF Done:  E(RB3LYP) =  -1202.66073838     A.U. after   13 cycles
 SCF Done:  E(RB3LYP) =  -1202.66074087     A.U. after   12 cycles
 SCF Done:  E(RB3LYP) =  -1202.66074160     A.U. after   12 cycles
 Optimization completed.
    -- Stationary point found.
 Normal termination of Gaussian 16 at Sat Sep 16 17:00:44 2023.

 ---------------------------------------------------------------------
 #N Geom=AllCheck Guess=TCheck SCRF=Check GenChk RB3LYP/6-31+G(d) Freq
 ---------------------------------------------------------------------

 Structure from the checkpoint file:  "molecule_76.chk"
 -------------
 ML molecule76
 -------------
 Charge =  0 Multiplicity = 1

                         Standard orientation:
 ---------------------------------------------------------------------
 Center     Atomic      Atomic             Coordinates (Angstroms)
 Number     Number       Type             X           Y           Z
 ---------------------------------------------------------------------
      1          6           0       -2.896968   -0.174069    0.061863
      2          6           0       -1.863861   -0.540436    0.925591
      3          6           0       -0.550619   -0.531943    0.464181
      4          6           0       -0.290675   -0.153010   -0.858899
      5          6           0       -1.333475    0.213140   -1.721196
      6          6           0       -2.642806    0.203332   -1.261207
      7          1           0       -2.092593   -0.827447    1.945071
      8          1           0       -1.095815    0.504639   -2.738905
      9          1           0       -3.465469    0.484427   -1.907772
     10          1           0        0.261332   -0.812998    1.125343
     11          7           0       -4.278054   -0.184920    0.551787
     12          8           0       -5.171873    0.142170   -0.233966
     13          8           0       -4.473792   -0.521107    1.723241
     14          8           0        0.966576   -0.129355   -1.407011
     15          6           0        2.071189   -0.354138   -0.603736
     16          6           0        2.700043   -1.597415   -0.662264
     17          6           0        2.602045    0.664525    0.199474
     18          6           0        3.856732   -1.831516    0.083185
     19          1           0        2.268056   -2.363354   -1.299136
     20          6           0        3.757232    0.429611    0.948429
     21          6           0        4.382285   -0.817922    0.889620
     22          1           0        4.343439   -2.801120    0.033290
     23          1           0        4.158430    1.226572    1.566271
     24          1           0        5.281999   -0.992121    1.472691
     25         17           0        1.821940    2.228307    0.264251
 ---------------------------------------------------------------------

 SCF Done:  E(RB3LYP) =  -1202.66074160     A.U. after    1 cycles

 The electronic state is 1-A.
 Alpha  occ. eigenvalues -- -101.57622 -19.23033 -19.19184 -19.19174 -14.58004
 Alpha  occ. eigenvalues --  -10.29540 -10.29061 -10.28247 -10.26059 -10.23466
 Alpha  occ. eigenvalues --  -10.23340 -10.23321 -10.23044 -10.22927 -10.22872
 Alpha  occ. eigenvalues --  -10.22713 -10.22477  -9.49068  -7.25501  -7.24506
 Alpha  occ. eigenvalues --   -7.24461  -1.23109  -1.12065  -1.05824  -0.91866
 Alpha  occ. eigenvalues --   -0.90081  -0.86520  -0.82329  -0.79115  -0.78179
 Alpha  occ. eigenvalues --   -0.76414  -0.71260  -0.66358  -0.64769  -0.63845
 Alpha  occ. eigenvalues --   -0.60538  -0.58302  -0.56273  -0.53773  -0.53189
 Alpha  occ. eigenvalues --   -0.52723  -0.51547  -0.50351  -0.48246  -0.48097
 Alpha  occ. eigenvalues --   -0.46308  -0.46081  -0.44732  -0.43794  -0.43604
 Alpha  occ. eigenvalues --   -0.41050  -0.40583  -0.39578  -0.37788  -0.36553
 Alpha  occ. eigenvalues --   -0.35841  -0.33595  -0.31897  -0.31827  -0.29944
 Alpha  occ. eigenvalues --   -0.29056  -0.28582  -0.27323  -0.26512
 Alpha virt. eigenvalues --   -0.09952  -0.05083  -0.04327  -0.03936  -0.01492
 Alpha virt. eigenvalues --   -0.00782  -0.00462   0.00903   0.01184   0.01776
 Alpha virt. eigenvalues --    0.02405   0.03074   0.03824   0.04261   0.05064

 Mulliken charges:
               1
     1  C   -0.064729
     2  C   -0.519998
     3  C    0.405789
     4  C    0.194405
     5  C   -0.680682
     6  C    0.103762
     7  H    0.232627
     8  H    0.207541
     9  H    0.232069
    10  H    0.211843
    11  N   -0.343426
    12  O   -0.031804
    13  O   -0.032532
    14  O   -0.334695
    15  C   -0.333156
    16  C   -0.043039
    17  C    0.406783
    18  C   -0.173008
    19  H    0.203090
    20  C   -0.298539
    21  C   -0.129200
    22  H    0.193649
    23  H    0.208930
    24  H    0.192493
    25  Cl   0.191825
 Sum of Mulliken charges =   0.00000

 Dipole moment (field-independent basis, Debye):
    X=              6.6294    Y=             -1.5545    Z=             -0.6350  Tot=              6.8387
 Quadrupole moment (field-independent basis, Debye-Ang):
   XX=           -123.4234   YY=           -101.5297   ZZ=           -102.9667
   XY=             -6.7580   XZ=             12.4930   YZ=              0.8736

  Exact polarizability: 243.171 -19.204 140.205   9.636  -3.440 145.048
 Approx polarizability: 333.846 -34.284 229.268  21.366 -13.129 269.667

                      1                      2                      3
                      A                      A                      A
 Frequencies --     23.3429                33.4170                59.9272
 Red. masses --      9.3948                 6.9799                 6.8888
 Frc consts  --      0.0030                 0.0046                 0.0146
 IR Inten    --      0.0913                 0.2013                 0.3411

                      4                      5                      6
                      A                      A                      A
 Frequencies --     69.4054               100.5105               144.4781
 Red. masses --      5.6128                 9.2374                 5.2011
 Frc consts  --      0.0159                 0.0550                 0.0640
 IR Inten    --      0.1335                 3.7086                 0.1154

                      7                      8                      9
                      A                      A                      A
 Frequencies --    200.8605               237.2521               264.2044
 Red. masses --      9.2088                10.4051                 6.6974
 Frc consts  --      0.2189                 0.3451                 0.2754
 IR Inten    --      2.1030                 1.6409                 1.2639

                     10                     11                     12
                      A                      A                      A
 Frequencies --    304.3703               317.0561               388.6403
 Red. masses --      7.1439                 6.4231                10.0252
 Frc consts  --      0.3899                 0.3804                 0.8922
 IR Inten    --      0.1248                 0.1943                 0.4570

                     13                     14                     15
                      A                      A                      A
 Frequencies --    421.2922               426.6539               467.2489
 Red. masses --      5.7394                 3.0925                 3.7908
 Frc consts  --      0.6002                 0.3317                 0.4876
 IR Inten    --      0.4288                 0.0520                 6.8602

                     16                     17                     18
                      A                      A                      A
 Frequencies --    488.9425               509.6146               524.0741
 Red. masses --      4.0681                 4.4132                 6.3880
 Frc consts  --      0.5730                 0.6753                 1.0337
 IR Inten    --     11.8123                 1.3736                 3.8712

                     19                     20                     21
                      A                      A                      A
 Frequencies --    539.1827               613.8739               642.0637
 Red. masses --      5.5111                 5.5797                 7.2192
 Frc consts  --      0.9440                 1.2389                 1.7534
 IR Inten    --      1.3157                 0.5688                 2.0465

                     22                     23                     24
                      A                      A                      A
 Frequencies --    653.3606               687.2544               694.4701
 Red. masses --      6.2855                 3.9464                 6.6806
 Frc consts  --      1.5809                 1.0982                 1.8983
 IR Inten    --      8.4135                 3.6718                20.1792

                     25                     26                     27
                      A                      A                      A
 Frequencies --    730.7190               751.9242               769.1061
 Red. masses --      3.3660                 6.5111                 1.6043
 Frc consts  --      1.0589                 2.1690                 0.5591
 IR Inten    --      6.7366                22.6721                57.8644

                     28                     29                     30
                      A                      A                      A
 Frequencies --    805.6809               828.3396               858.9462
 Red. masses --      3.7423                 1.2505                 3.9039
 Frc consts  --      1.4313                 0.5055                 1.6970
 IR Inten    --      9.7653                 0.1315                24.5708

                     31                     32                     33
                      A                      A                      A
 Frequencies --    862.1810               877.0180               896.9011
 Red. masses --      2.2360                 1.5221                 6.5707
 Frc consts  --      0.9793                 0.6898                 3.1142
 IR Inten    --     40.4938                 1.4937                50.7650

                     34                     35                     36
                      A                      A                      A
 Frequencies --    958.2645               979.2512               987.3261
 Red. masses --      1.3749                 1.3039                 1.3285
 Frc consts  --      0.7439                 0.7367                 0.7630
 IR Inten    --      2.6647                 2.0179                 0.0391

                     37                     38                     39
                      A                      A                      A
 Frequencies --    993.4283              1028.4482              1056.6707
 Red. masses --      1.2913                 2.8021                 3.2590
 Frc consts  --      0.7509                 1.7462                 2.1440
 IR Inten    --      0.0098                 0.8760                17.9835

                     40                     41                     42
                      A                      A                      A
 Frequencies --   1078.5518              1134.1728              1151.0736
 Red. masses --      3.1205                 3.3145                 1.2502
 Frc consts  --      2.1387                 2.5121                 0.9760
 IR Inten    --     36.7563               107.5920                11.8941

                     43                     44                     45
                      A                      A                      A
 Frequencies --   1153.6162              1198.7332              1206.6763
 Red. masses --      1.6108                 1.1132                 1.3165
 Frc consts  --      1.2630                 0.9425                 1.1294
 IR Inten    --      5.3305                 0.1959                80.6359

                     46                     47                     48
                      A                      A                      A
 Frequencies --   1237.8105              1281.3562              1296.4493
 Red. masses --      2.9559                 2.4478                 2.0395
 Frc consts  --      2.6684                 2.3679                 2.0197
 IR Inten    --      8.4622               367.9215               301.1711

                     49                     50                     51
                      A                      A                      A
 Frequencies --   1332.3608              1335.3589              1374.1287
 Red. masses --      1.9848                 2.6959                10.6054
 Frc consts  --      2.0759                 2.8324                11.7986
 IR Inten    --      7.4376                 7.4948               325.1863

                     52                     53                     54
                      A                      A                      A
 Frequencies --   1379.5826              1464.2942              1481.5248
 Red. masses --     10.4454                 3.3600                 2.1847
 Frc consts  --     11.7130                 4.2447                 2.8253
 IR Inten    --    120.0435                 3.5590                20.3240

                     55                     56                     57
                      A                      A                      A
 Frequencies --   1515.3457              1534.4544              1585.0593
 Red. masses --      2.5813                 2.3446                12.2522
 Frc consts  --      3.4924                 3.2525                18.1366
 IR Inten    --    145.8646                99.3476               199.4713

                     58                     59                     60
                      A                      A                      A
 Frequencies --   1625.9063              1632.3723              1648.1168
 Red. masses --      6.2894                 5.7444                 6.6171
 Frc consts  --      9.7961                 9.0185                10.5899
 IR Inten    --     17.3016                70.6375                90.2382

                     61                     62                     63
                      A                      A                      A
 Frequencies --   1656.9658              3194.9550              3206.8665
 Red. masses --      7.0714                 1.0867                 1.0905
 Frc consts  --     11.4389                 6.5356                 6.6073
 IR Inten    --     99.6408                 1.0429                 9.7459

                     64                     65                     66
                      A                      A                      A
 Frequencies --   3216.8161              3219.8258              3222.3544
 Red. masses --      1.0939                 1.0907                 1.0968
 Frc consts  --      6.6696                 6.6620                 6.7101
 IR Inten    --      5.1324                 1.7121                 5.6422

                     67                     68                     69
                      A                      A                      A
 Frequencies --   3223.8262              3244.7667              3246.3985
 Red. masses --      1.0898                 1.0934                 1.0936
 Frc consts  --      6.6735                 6.7827                 6.7906
 IR Inten    --      2.2714                 1.6811                 2.2193

 - Thermochemistry -
 -------------------
 Temperature   298.150 Kelvin.  Pressure   1.00000 Atm.
 Atom     1 has atomic number  6 and mass  12.00000

 Molecular mass:   249.01927 amu.
 Principal axes and moments of inertia in atomic units:
                           1         2         3
     Eigenvalues --  1818.150248891.346629165.95416
           X            0.99990  -0.01107   0.00841
           Y            0.01130   0.99955  -0.02779
           Z           -0.00810   0.02788   0.99958
 This molecule is an asymmetric top.
 Rotational symmetry number  1.
 Warning -- assumption of classical behavior for rotation
           may cause significant error
 Rotational temperatures (Kelvin)      0.04764     0.00974     0.00945
 Rotational constants (GHZ):           0.99262     0.20298     0.19690
 Zero-point vibrational energy     468191.0 (Joules/Mol)
                                  111.90033 (Kcal/Mol)
 Warning -- explicit consideration of  20 degrees of freedom as
           vibrations may cause significant error
 Vibrational temperatures:     33.59    48.08    86.22    99.86   144.61
          (Kelvin)            207.87   288.99   341.35   380.13   437.92
                              456.17   559.17   606.15   613.86   672.27
                              703.48   733.22   754.03   775.76   883.23
                              923.79   940.04   988.81   999.19  1051.34
                             1081.85  1106.57  1159.20  1191.80  1235.83
                             1240.49  1261.83  1290.44  1378.73  1408.92
                             1420.54  1429.32  1479.71  1520.31  1551.80
                             1631.82  1656.14  1659.80  1724.71  1736.14
                             1780.93  1843.59  1865.30  1916.97  1921.28
                             1977.06  1984.91  2106.79  2131.58  2180.24
                             2207.74  2280.55  2339.32  2348.62  2371.27
                             2384.00  4596.83  4613.97  4628.28  4632.61
                             4636.25  4638.37  4668.50  4670.84

 Zero-point correction=                           0.178325 (Hartree/Particle)
 Thermal correction to Energy=                    0.192034
 Thermal correction to Enthalpy=                  0.192978
 Thermal correction to Gibbs Free Energy=         0.135221
 Sum of electronic and zero-point Energies=          -1202.482417
 Sum of electronic and thermal Energies=             -1202.468708
 Sum of electronic and thermal Enthalpies=           -1202.467764
 Sum of electronic and thermal Free Energies=        -1202.525521

                     E (Thermal)             CV                S
                      KCal/Mol        Cal/Mol-Kelvin    Cal/Mol-Kelvin
 Total                  120.503             52.301            121.560
 Electronic               0.000              0.000              0.000
 Translational            0.889              2.981             42.438
 Rotational               0.889              2.981             33.360
 Vibrational            118.726             46.339             45.763
 Vibration     1          0.593              1.985              6.327
 Vibration     2          0.594              1.983              5.615
 Vibration     3          0.597              1.973              4.460
 Vibration     4          0.598              1.969              4.170
 Vibration     5          0.604              1.949              3.444
 Vibration     6          0.616              1.909              2.744
 Vibration     7          0.638              1.839              2.125
 Vibration     8          0.656              1.784              1.823
 Vibration     9          0.671              1.739              1.634
 Vibration    10          0.695              1.665              1.393
 Vibration    11          0.704              1.641              1.325
 Vibration    12          0.757              1.494              1.005
 Vibration    13          0.784              1.424              0.888
 Vibration    14          0.788              1.412              0.870
 Vibration    15          0.825              1.323              0.745
 Vibration    16          0.845              1.275              0.686
 Vibration    17          0.865              1.229              0.635
 Vibration    18          0.879              1.197              0.601
 Vibration    19          0.894              1.163              0.567
 Vibration    20          0.973              1.003              0.426

                           ! Non-Optimized Parameters !
 Normal termination of Gaussian 16 at Sat Sep 16 17:05:51 2023.
