 Gaussian 16, Revision B.01,
 Gaussian 16:  EM64L-G16RevB.01 20-Dec-2017

 ----------------------------------------------------------------------
 # opt freq b3lyp/6-31+g(d) geom=connectivity empiricaldispersion=gd3 v
 olume
 ----------------------------------------------------------------------

 -------------
 ML molecule96
 -------------
 Symbolic Z-matrix:
 Charge =  0 Multiplicity = 1

 SCF Done:  E(RB3LYP) =  -998.054378146     A.U. after   15 cycles
 SCF Done:  E(RB3LYP) =  -998.082036160     A.U. after   16 cycles
 SCF Done:  E(RB3LYP) =  -998.110219543     A.U. after   16 cycles
 SCF Done:  E(RB3LYP) =  -998.126793458     A.U. after   13 cycles
 SCF Done:  E(RB3LYP) =  -998.134988256     A.U. after   16 cycles
 SCF Done:  E(RB3LYP) =  -998.140617809     A.U. after   16 cycles
 SCF Done:  E(RB3LYP) =  -998.143422454     A.U. after   16 cycles
 SCF Done:  E(RB3LYP) =  -998.145569378     A.U. after   15 cycles
 SCF Done:  E(RB3LYP) =  -998.145910144     A.U. after   14 cycles
 SCF Done:  E(RB3LYP) =  -998.146298320     A.U. after   15 cycles
 SCF Done:  E(RB3LYP) =  -998.146368848     A.U. after   13 cycles
 SCF Done:  E(RB3LYP) =  -998.146392426     A.U. after   12 cycles
 SCF Done:  E(RB3LYP) =  -998.146402231     A.U. after   12 cycles
 SCF Done:  E(RB3LYP) =  -998.146407645     A.U. after   12 cycles
 SCF Done:  E(RB3LYP) =  -998.146407962     A.U. after   11 cycles
 SCF Done:  E(RB3LYP) =  -998.146408031     A.U. after    9 cycles
 Optimization completed.
    -- Stationary point found.
 Normal termination of Gaussian 16 at Fri Sep 15 06:50:13 2023.

 ---------------------------------------------------------------------
 #N Geom=AllCheck Guess=TCheck SCRF=Check GenChk RB3LYP/6-31+G(d) Freq
 ---------------------------------------------------------------------

 Structure from the checkpoint file:  "molecule_96.chk"
 -------------
 ML molecule96
 -------------
 Charge =  0 Multiplicity = 1

                         Standard orientation:
 ---------------------------------------------------------------------
 Center     Atomic      Atomic             Coordinates (Angstroms)
 Number     Number       Type             X           Y           Z
 ---------------------------------------------------------------------
      1          6           0        4.426473   -0.998352   -0.128223
      2          6           0        3.334748   -1.348071   -0.930113
      3          6           0        2.155717   -0.600334   -0.890408
      4          6           0        2.075534    0.499211   -0.030167
      5          6           0        3.157057    0.861709    0.773821
      6          6           0        4.333752    0.110155    0.718978
      7          1           0        3.400468   -2.203166   -1.597966
      8          1           0        3.062440    1.724892    1.425618
      9          1           0        5.177069    0.391203    1.344401
     10          8           0        0.961650    1.322995    0.007799
     11          6           0       -0.305978    0.777715    0.016369
     12          6           0       -0.617787   -0.402310    0.699794
     13          6           0       -1.305964    1.504020   -0.634353
     14          6           0       -1.936042   -0.860492    0.720621
     15          6           0       -2.625484    1.051112   -0.607818
     16          1           0       -1.039948    2.419490   -1.153503
     17          6           0       -2.931110   -0.132113    0.066624
     18          1           0       -2.189046   -1.774469    1.248295
     19          1           0       -3.408311    1.608849   -1.111498
     20          1           0        1.307562   -0.861478   -1.515635
     21          1           0        0.161542   -0.958091    1.210678
     22          1           0        5.341370   -1.583089   -0.165934
     23         17           0       -4.592461   -0.713035    0.094259
 ---------------------------------------------------------------------

 SCF Done:  E(RB3LYP) =  -998.146408031     A.U. after    1 cycles

 The electronic state is 1-A.
 Alpha  occ. eigenvalues -- -101.55657 -19.20615 -10.27057 -10.26594 -10.26059
 Alpha  occ. eigenvalues --  -10.21843 -10.21784 -10.21376 -10.21175 -10.20963
 Alpha  occ. eigenvalues --  -10.20894 -10.20693 -10.20472 -10.20355  -9.47169
 Alpha  occ. eigenvalues --   -7.23575  -7.22599  -7.22579  -1.09399  -0.89938
 Alpha  occ. eigenvalues --   -0.86961  -0.84380  -0.77591  -0.76939  -0.76263
 Alpha  occ. eigenvalues --   -0.72957  -0.64859  -0.63715  -0.62355  -0.59526
 Alpha  occ. eigenvalues --   -0.56272  -0.52002  -0.50218  -0.49368  -0.48371
 Alpha  occ. eigenvalues --   -0.46661  -0.45713  -0.44781  -0.43931  -0.42256
 Alpha  occ. eigenvalues --   -0.41548  -0.39822  -0.38872  -0.38214  -0.37659
 Alpha  occ. eigenvalues --   -0.35947  -0.35272  -0.32338  -0.31929  -0.27746
 Alpha  occ. eigenvalues --   -0.26794  -0.26027  -0.23143
 Alpha virt. eigenvalues --   -0.03657  -0.02868  -0.02013  -0.01151  -0.00257
 Alpha virt. eigenvalues --    0.00683   0.01253   0.02134   0.02353   0.02862
 Alpha virt. eigenvalues --    0.03771   0.04620   0.04685   0.05186   0.05718

 Mulliken charges:
               1
     1  C   -0.201090
     2  C   -0.210243
     3  C    0.205135
     4  C   -0.114037
     5  C   -0.141416
     6  C   -0.270621
     7  H    0.184145
     8  H    0.192841
     9  H    0.184351
    10  O   -0.340778
    11  C   -0.322288
    12  C    0.378876
    13  C   -0.142995
    14  C   -0.446015
    15  C   -0.505122
    16  H    0.199362
    17  C    0.164487
    18  H    0.203154
    19  H    0.203718
    20  H    0.196201
    21  H    0.204181
    22  H    0.180589
    23  Cl   0.197564
 Sum of Mulliken charges =   0.00000

 Dipole moment (field-independent basis, Debye):
    X=              1.9861    Y=             -0.4528    Z=             -0.0639  Tot=              2.0380
 Quadrupole moment (field-independent basis, Debye-Ang):
   XX=            -89.8760   YY=            -85.7306   ZZ=            -87.9013
   XY=             -4.9220   XZ=              3.4929   YZ=             -0.3389

  Exact polarizability: 228.048  -2.743 132.892  12.071  -0.048 109.194
 Approx polarizability: 304.768  -2.258 226.488  26.121  -1.108 177.159

                      1                      2                      3
                      A                      A                      A
 Frequencies --     19.2982                42.3276                68.7909
 Red. masses --      5.1084                 4.5360                 5.4264
 Frc consts  --      0.0011                 0.0048                 0.0151
 IR Inten    --      0.9462                 0.0955                 0.1128

                      4                      5                      6
                      A                      A                      A
 Frequencies --    134.3837               210.5132               255.3691
 Red. masses --      7.3918                 5.6869                 7.7652
 Frc consts  --      0.0786                 0.1485                 0.2984
 IR Inten    --      0.9851                 0.5749                 0.1821

                      7                      8                      9
                      A                      A                      A
 Frequencies --    312.3750               316.8168               403.1852
 Red. masses --      6.2263                 6.6542                 5.6268
 Frc consts  --      0.3580                 0.3935                 0.5389
 IR Inten    --      2.6011                 0.5812                 5.5368

                     10                     11                     12
                      A                      A                      A
 Frequencies --    422.0803               427.5985               442.5661
 Red. masses --      3.0154                 3.0713                 7.3387
 Frc consts  --      0.3165                 0.3309                 0.8469
 IR Inten    --      0.4425                 0.1193                 1.9271

                     13                     14                     15
                      A                      A                      A
 Frequencies --    498.3671               509.1618               604.9238
 Red. masses --      3.6779                 2.7794                 5.3667
 Frc consts  --      0.5382                 0.4245                 1.1571
 IR Inten    --     15.1597                27.1454                 2.7678

                     16                     17                     18
                      A                      A                      A
 Frequencies --    624.2960               646.1118               665.0195
 Red. masses --      6.3617                 7.1723                 6.5565
 Frc consts  --      1.4609                 1.7641                 1.7084
 IR Inten    --      2.2478                 0.8069                15.6178

                     19                     20                     21
                      A                      A                      A
 Frequencies --    698.3778               710.7823               767.1613
 Red. masses --      2.6268                 2.8884                 1.9178
 Frc consts  --      0.7548                 0.8598                 0.6650
 IR Inten    --     20.1419                10.2068                58.0407

                     22                     23                     24
                      A                      A                      A
 Frequencies --    800.9000               823.8975               842.2406
 Red. masses --      3.5058                 1.2482                 1.2527
 Frc consts  --      1.3249                 0.4992                 0.5236
 IR Inten    --     21.4653                 0.1393                 0.4312

                     25                     26                     27
                      A                      A                      A
 Frequencies --    848.2066               886.6236               917.8959
 Red. masses --      1.7585                 5.7858                 1.4799
 Frc consts  --      0.7454                 2.6797                 0.7346
 IR Inten    --     47.7909                23.8274                 4.7116

                     28                     29                     30
                      A                      A                      A
 Frequencies --    952.7025               966.5245               975.2029
 Red. masses --      1.3086                 1.3346                 1.3487
 Frc consts  --      0.6998                 0.7346                 0.7557
 IR Inten    --      0.0664                 0.2798                 0.1643

                     31                     32                     33
                      A                      A                      A
 Frequencies --    995.3128              1015.8471              1028.5752
 Red. masses --      1.2671                 6.2228                 3.5614
 Frc consts  --      0.7395                 3.7835                 2.2199
 IR Inten    --      0.1601                 0.7638                28.7374

                     34                     35                     36
                      A                      A                      A
 Frequencies --   1048.9308              1105.2677              1107.3761
 Red. masses --      2.0893                 2.9912                 1.5284
 Frc consts  --      1.3544                 2.1530                 1.1043
 IR Inten    --      8.3589                64.4571                 8.8675

                     37                     38                     39
                      A                      A                      A
 Frequencies --   1140.6993              1195.1356              1198.9341
 Red. masses --      1.3178                 1.1721                 1.2942
 Frc consts  --      1.0103                 0.9864                 1.0961
 IR Inten    --      7.8476                 3.4209                 3.8551

                     40                     41                     42
                      A                      A                      A
 Frequencies --   1204.4951              1226.6875              1279.4360
 Red. masses --      1.1629                 2.4305                 5.4367
 Frc consts  --      0.9941                 2.1548                 5.2435
 IR Inten    --     24.1772                 7.1754               554.1995

                     43                     44                     45
                      A                      A                      A
 Frequencies --   1324.9331              1329.7912              1346.1538
 Red. masses --      2.7392                 1.7190                 2.3876
 Frc consts  --      2.8331                 1.7910                 2.5492
 IR Inten    --      2.7744                 7.1541                 1.5304

                     46                     47                     48
                      A                      A                      A
 Frequencies --   1362.4515              1446.6544              1495.8709
 Red. masses --      2.4874                 2.9554                 2.2528
 Frc consts  --      2.7204                 3.6442                 2.9701
 IR Inten    --      4.0769                 1.8665                 0.8863

                     49                     50                     51
                      A                      A                      A
 Frequencies --   1527.7191              1534.5239              1626.3521
 Red. masses --      2.2402                 2.2739                 6.8311
 Frc consts  --      3.0805                 3.1548                10.6456
 IR Inten    --    339.5590                19.6449                 1.9280

                     52                     53                     54
                      A                      A                      A
 Frequencies --   1638.9863              1641.9774              1655.0839
 Red. masses --      5.6072                 6.0483                 5.8170
 Frc consts  --      8.8745                 9.6076                 9.3883
 IR Inten    --     90.8057                 6.0999                10.5844

                     55                     56                     57
                      A                      A                      A
 Frequencies --   3182.5513              3191.3445              3204.7064
 Red. masses --      1.0857                 1.0894                 1.0926
 Frc consts  --      6.4791                 6.5369                 6.6111
 IR Inten    --      1.4210                11.2531                29.9237

                     58                     59                     60
                      A                      A                      A
 Frequencies --   3208.1571              3209.7718              3212.9681
 Red. masses --      1.0885                 1.0888                 1.0937
 Frc consts  --      6.6010                 6.6093                 6.6524
 IR Inten    --      7.1560                 0.5143                 9.9869

                     61                     62                     63
                      A                      A                      A
 Frequencies --   3215.8155              3222.6887              3223.8934
 Red. masses --      1.0965                 1.0947                 1.0952
 Frc consts  --      6.6808                 6.6988                 6.7069
 IR Inten    --      2.3794                 4.7227                 0.2250

 - Thermochemistry -
 -------------------
 Temperature   298.150 Kelvin.  Pressure   1.00000 Atm.
 Atom     1 has atomic number  6 and mass  12.00000

 Molecular mass:   204.03419 amu.
 Principal axes and moments of inertia in atomic units:
                           1         2         3
     Eigenvalues --   885.623647124.511177512.81920
           X            0.99995  -0.00981   0.00312
           Y            0.00981   0.99995   0.00121
           Z           -0.00314  -0.00118   0.99999
 This molecule is an asymmetric top.
 Rotational symmetry number  1.
 Warning -- assumption of classical behavior for rotation
           may cause significant error
 Rotational temperatures (Kelvin)      0.09780     0.01216     0.01153
 Rotational constants (GHZ):           2.03782     0.25331     0.24022
 Zero-point vibrational energy     461416.4 (Joules/Mol)
                                  110.28116 (Kcal/Mol)
 Warning -- explicit consideration of  15 degrees of freedom as
           vibrations may cause significant error
 Vibrational temperatures:     27.77    60.90    98.97   193.35   302.88
          (Kelvin)            367.42   449.44   455.83   580.09   607.28
                              615.22   636.75   717.04   732.57   870.35
                              898.22   929.61   956.81  1004.81  1022.66
                             1103.77  1152.32  1185.40  1211.80  1220.38
                             1275.65  1320.65  1370.73  1390.61  1403.10
                             1432.03  1461.58  1479.89  1509.18  1590.23
                             1593.27  1641.21  1719.53  1725.00  1733.00
                             1764.93  1840.82  1906.28  1913.27  1936.82
                             1960.26  2081.41  2152.22  2198.05  2207.84
                             2339.96  2358.14  2362.44  2381.30  4578.98
                             4591.63  4610.86  4615.82  4618.15  4622.74
                             4626.84  4636.73  4638.46

 Zero-point correction=                           0.175744 (Hartree/Particle)
 Thermal correction to Energy=                    0.186961
 Thermal correction to Enthalpy=                  0.187905
 Thermal correction to Gibbs Free Energy=         0.136186
 Sum of electronic and zero-point Energies=           -997.970664
 Sum of electronic and thermal Energies=              -997.959447
 Sum of electronic and thermal Enthalpies=            -997.958503
 Sum of electronic and thermal Free Energies=         -998.010222

                     E (Thermal)             CV                S
                      KCal/Mol        Cal/Mol-Kelvin    Cal/Mol-Kelvin
 Total                  117.320             43.867            108.854
 Electronic               0.000              0.000              0.000
 Translational            0.889              2.981             41.844
 Rotational               0.889              2.981             32.228
 Vibrational            115.542             37.905             34.782
 Vibration     1          0.593              1.986              6.705
 Vibration     2          0.595              1.980              5.147
 Vibration     3          0.598              1.969              4.188
 Vibration     4          0.613              1.919              2.882
 Vibration     5          0.643              1.825              2.039
 Vibration     6          0.666              1.754              1.693
 Vibration     7          0.701              1.650              1.350
 Vibration     8          0.704              1.641              1.326
 Vibration     9          0.769              1.463              0.951
 Vibration    10          0.784              1.422              0.885
 Vibration    11          0.789              1.410              0.867
 Vibration    12          0.802              1.377              0.819
 Vibration    13          0.854              1.254              0.662
 Vibration    14          0.864              1.230              0.636
 Vibration    15          0.963              1.021              0.441

 Optimization completed.
    -- Stationary point found.
 Normal termination of Gaussian 16 at Fri Sep 15 06:53:54 2023.
