 Gaussian 16, Revision B.01,
 Gaussian 16:  EM64L-G16RevB.01 20-Dec-2017

 ---------------------------------------------------------
 # opt freq b3lyp/6-31+g(d) empiricaldispersion=gd3 volume
 ---------------------------------------------------------

 -------------------
 Title Card Required
 -------------------
 Symbolic Z-matrix:
 Charge =  0 Multiplicity = 1

 SCF Done:  E(RB3LYP) =  -555.532623382     A.U. after   14 cycles
 SCF Done:  E(RB3LYP) =  -555.533045814     A.U. after   12 cycles
 SCF Done:  E(RB3LYP) =  -555.533067948     A.U. after   10 cycles
 SCF Done:  E(RB3LYP) =  -555.533068771     A.U. after   10 cycles
 SCF Done:  E(RB3LYP) =  -555.533068916     A.U. after    9 cycles
 Optimization completed.
    -- Stationary point found.
 Normal termination of Gaussian 16 at Mon Sep 18 04:35:44 2023.

 ---------------------------------------------------------------------
 #N Geom=AllCheck Guess=TCheck SCRF=Check GenChk RB3LYP/6-31+G(d) Freq
 ---------------------------------------------------------------------

 Structure from the checkpoint file:  "molecule_31.chk"
 -------------------
 Title Card Required
 -------------------
 Charge =  0 Multiplicity = 1

                         Standard orientation:
 ---------------------------------------------------------------------
 Center     Atomic      Atomic             Coordinates (Angstroms)
 Number     Number       Type             X           Y           Z
 ---------------------------------------------------------------------
      1          6           0        4.161949    1.142521    0.000321
      2          6           0        2.769117    1.202563    0.000008
      3          6           0        2.036254    0.000041   -0.000208
      4          6           0        2.769023   -1.202538   -0.000095
      5          6           0        4.161860   -1.142605    0.000237
      6          1           0        4.746110    2.060949    0.000504
      7          1           0        2.255892    2.159188   -0.000074
      8          1           0        2.255724   -2.159123   -0.000269
      9          1           0        4.745949   -2.061078    0.000325
     10          6           0        0.612845    0.000097   -0.000588
     11          6           0       -0.604186    0.000126   -0.000821
     12          6           0       -2.029507    0.000053   -0.000347
     13          6           0       -2.744795    1.215703   -0.000200
     14          6           0       -2.744677   -1.215664   -0.000074
     15          6           0       -4.138704    1.210731    0.000199
     16          1           0       -2.197057    2.153551   -0.000416
     17          6           0       -4.138589   -1.210825    0.000326
     18          1           0       -2.196852   -2.153461   -0.000193
     19          6           0       -4.839924   -0.000082    0.000469
     20          1           0       -4.679609    2.153419    0.000302
     21          1           0       -4.679401   -2.153567    0.000527
     22          1           0       -5.926712   -0.000132    0.000783
     23          7           0        4.864568   -0.000069    0.000449
 ---------------------------------------------------------------------

 SCF Done:  E(RB3LYP) =  -555.533068916     A.U. after    1 cycles

 The electronic state is 1-A.
 Alpha  occ. eigenvalues --  -14.34353 -10.24411 -10.23419 -10.23419 -10.23418
 Alpha  occ. eigenvalues --  -10.21464 -10.21463 -10.21397 -10.21397 -10.21292
 Alpha  occ. eigenvalues --  -10.21215 -10.21178 -10.21165 -10.20843  -0.95125
 Alpha  occ. eigenvalues --   -0.87877  -0.83969  -0.79577  -0.77285  -0.76602
 Alpha  occ. eigenvalues --   -0.74243  -0.66390  -0.64259  -0.62865  -0.62485
 Alpha  occ. eigenvalues --   -0.56450  -0.54536  -0.49853  -0.49750  -0.48505
 Alpha  occ. eigenvalues --   -0.47205  -0.45416  -0.44095  -0.44056  -0.43974
 Alpha  occ. eigenvalues --   -0.41339  -0.39482  -0.38016  -0.37616  -0.36687
 Alpha  occ. eigenvalues --   -0.34560  -0.29914  -0.28767  -0.27473  -0.27235
 Alpha  occ. eigenvalues --   -0.26792  -0.23676
 Alpha virt. eigenvalues --   -0.07531  -0.02803  -0.02619  -0.02003  -0.00377
 Alpha virt. eigenvalues --    0.00804   0.01543   0.02432   0.02661   0.03203
 Alpha virt. eigenvalues --    0.04269   0.04497   0.04812   0.05062   0.05254

 Mulliken charges:
               1
     1  C   -0.423699
     2  C    0.265946
     3  C   -0.076610
     4  C    0.265818
     5  C   -0.423751
     6  H    0.182963
     7  H    0.197381
     8  H    0.197381
     9  H    0.182964
    10  C   -0.059922
    11  C   -0.131227
    12  C   -0.018112
    13  C   -0.240385
    14  C   -0.240349
    15  C   -0.126782
    16  H    0.194366
    17  C   -0.126882
    18  H    0.194366
    19  C   -0.204814
    20  H    0.185303
    21  H    0.185304
    22  H    0.184105
    23  N   -0.163362
 Sum of Mulliken charges =   0.00000

 Dipole moment (field-independent basis, Debye):
    X=             -3.4021    Y=              0.0000    Z=              0.0002  Tot=              3.4021
 Quadrupole moment (field-independent basis, Debye-Ang):
   XX=            -85.9417   YY=            -69.6896   ZZ=            -87.2991
   XY=              0.0007   XZ=             -0.0042   YZ=              0.0000

  Exact polarizability: 312.159   0.000 152.103   0.002   0.000  79.690
 Approx polarizability: 452.695  -0.001 257.647   0.009  -0.001 116.971

                      1                      2                      3
                      A                      A                      A
 Frequencies --     22.8188                45.0555                51.7217
 Red. masses --      3.6160                 5.1544                 6.5025
 Frc consts  --      0.0011                 0.0062                 0.0102
 IR Inten    --      0.0000                 0.0003                 0.0151

                      4                      5                      6
                      A                      A                      A
 Frequencies --    142.7686               146.7669               258.4609
 Red. masses --      5.6979                 5.2232                 6.9388
 Frc consts  --      0.0684                 0.0663                 0.2731
 IR Inten    --      1.6855                 0.4109                 0.0056

                      7                      8                      9
                      A                      A                      A
 Frequencies --    291.4412               387.8080               408.7859
 Red. masses --      6.2340                 2.5985                 5.4954
 Frc consts  --      0.3120                 0.2303                 0.5411
 IR Inten    --      3.3929                 0.0000                 0.7273

                     10                     11                     12
                      A                      A                      A
 Frequencies --    411.4111               476.7428               542.6533
 Red. masses --      2.9089                 6.9834                 8.6352
 Frc consts  --      0.2901                 0.9352                 1.4982
 IR Inten    --      0.0000                 2.6068                25.7472

                     13                     14                     15
                      A                      A                      A
 Frequencies --    543.4910               548.3754               569.2264
 Red. masses --      3.4664                 8.3636                 3.9300
 Frc consts  --      0.6033                 1.4818                 0.7503
 IR Inten    --     22.5616                 0.0575                 2.3864

                     16                     17                     18
                      A                      A                      A
 Frequencies --    634.6839               683.8090               698.3825
 Red. masses --      6.6111                 7.0808                 2.0066
 Frc consts  --      1.5691                 1.9508                 0.5766
 IR Inten    --      0.0005                 0.3533                33.9081

                     19                     20                     21
                      A                      A                      A
 Frequencies --    716.0774               748.4240               768.5355
 Red. masses --      6.4971                 3.4870                 1.7156
 Frc consts  --      1.9629                 1.1508                 0.5970
 IR Inten    --      3.9917                 0.4732                47.0552

                     22                     23                     24
                      A                      A                      A
 Frequencies --    835.5800               854.0187               865.6758
 Red. masses --      1.4850                 1.2481                 5.8384
 Frc consts  --      0.6109                 0.5363                 2.5778
 IR Inten    --     44.7107                 0.0000                 9.7492

                     25                     26                     27
                      A                      A                      A
 Frequencies --    879.7021               932.0797               979.9758
 Red. masses --      1.2486                 1.3963                 1.3188
 Frc consts  --      0.5693                 0.7147                 0.7462
 IR Inten    --      0.0000                 2.9331                 0.3354

                     28                     29                     30
                      A                      A                      A
 Frequencies --    980.9471               998.1545              1004.0310
 Red. masses --      1.3655                 1.4553                 1.2852
 Frc consts  --      0.7742                 0.8543                 0.7633
 IR Inten    --      0.0000                 0.0000                 0.0176

                     31                     32                     33
                      A                      A                      A
 Frequencies --   1006.4958              1013.0099              1052.1310
 Red. masses --      7.5370                 6.2640                 2.2598
 Frc consts  --      4.4986                 3.7873                 1.4738
 IR Inten    --      7.7649                 0.1901                 4.9150

                     34                     35                     36
                      A                      A                      A
 Frequencies --   1095.9527              1109.9062              1118.7552
 Red. masses --      2.0156                 1.6219                 1.5845
 Frc consts  --      1.4264                 1.1772                 1.1685
 IR Inten    --      1.2681                 5.4587                 0.0822

                     37                     38                     39
                      A                      A                      A
 Frequencies --   1170.0694              1200.8481              1217.3039
 Red. masses --      3.6468                 1.1094                 1.1537
 Frc consts  --      2.9416                 0.9425                 1.0073
 IR Inten    --      1.8629                 0.0276                 0.5374

                     40                     41                     42
                      A                      A                      A
 Frequencies --   1253.9592              1282.4031              1327.2565
 Red. masses --      1.2766                 9.2468                 3.2561
 Frc consts  --      1.1827                 8.9597                 3.3796
 IR Inten    --     10.3409                 0.3042                 0.1448

                     43                     44                     45
                      A                      A                      A
 Frequencies --   1350.5293              1359.7682              1364.3461
 Red. masses --      3.6946                 1.4199                 1.6970
 Frc consts  --      3.9704                 1.5468                 1.8612
 IR Inten    --      3.3697                 0.1101                 0.7496

                     46                     47                     48
                      A                      A                      A
 Frequencies --   1450.9182              1481.9345              1525.5354
 Red. masses --      1.8740                 2.1857                 2.0404
 Frc consts  --      2.3243                 2.8281                 2.7978
 IR Inten    --     14.3512                 5.1026                 0.2223

                     49                     50                     51
                      A                      A                      A
 Frequencies --   1543.0920              1581.6905              1617.3131
 Red. masses --      2.4313                 6.9822                 4.9653
 Frc consts  --      3.4109                10.2917                 7.6521
 IR Inten    --     23.8085                23.2507                 1.5560

                     52                     53                     54
                      A                      A                      A
 Frequencies --   1636.5312              1651.2297              2308.9749
 Red. masses --      5.0716                 5.3844                11.9969
 Frc consts  --      8.0029                 8.6497                37.6842
 IR Inten    --    141.1464                43.5819                56.6026

                     55                     56                     57
                      A                      A                      A
 Frequencies --   3173.9161              3176.3591              3181.7471
 Red. masses --      1.0879                 1.0911                 1.0857
 Frc consts  --      6.4572                 6.4860                 6.4758
 IR Inten    --     30.4065                21.6169                 1.3475

                     58                     59                     60
                      A                      A                      A
 Frequencies --   3190.3733              3201.1716              3208.5241
 Red. masses --      1.0886                 1.0920                 1.0943
 Frc consts  --      6.5283                 6.5931                 6.6377
 IR Inten    --      4.7898                18.5974                21.7196

                     61                     62                     63
                      A                      A                      A
 Frequencies --   3213.0661              3213.1987              3214.0515
 Red. masses --      1.0932                 1.0975                 1.0949
 Frc consts  --      6.6494                 6.6763                 6.6642
 IR Inten    --     19.5481                12.4234                 0.0902

 - Thermochemistry -
 -------------------
 Temperature   298.150 Kelvin.  Pressure   1.00000 Atm.
 Atom     1 has atomic number  6 and mass  12.00000

 Molecular mass:   179.07350 amu.
 Principal axes and moments of inertia in atomic units:
                           1         2         3
     Eigenvalues --   619.026487345.374797964.40109
           X            1.00000   0.00000  -0.00001
           Y            0.00000   1.00000   0.00001
           Z            0.00001  -0.00001   1.00000
 This molecule is an asymmetric top.
 Rotational symmetry number  1.
 Warning -- assumption of classical behavior for rotation
           may cause significant error
 Rotational temperatures (Kelvin)      0.13992     0.01179     0.01088
 Rotational constants (GHZ):           2.91545     0.24570     0.22660
 Zero-point vibrational energy     472046.2 (Joules/Mol)
                                  112.82176 (Kcal/Mol)
 Warning -- explicit consideration of  15 degrees of freedom as
           vibrations may cause significant error
 Vibrational temperatures:     32.83    64.82    74.42   205.41   211.16
          (Kelvin)            371.87   419.32   557.97   588.15   591.93
                              685.93   780.76   781.96   788.99   818.99
                              913.17   983.85  1004.82  1030.28  1076.82
                             1105.75  1202.21  1228.74  1245.51  1265.70
                             1341.05  1409.97  1411.36  1436.12  1444.58
                             1448.12  1457.50  1513.78  1576.83  1596.91
                             1609.64  1683.47  1727.75  1751.43  1804.17
                             1845.09  1909.63  1943.11  1956.40  1962.99
                             2087.55  2132.17  2194.91  2220.17  2275.70
                             2326.95  2354.60  2375.75  3322.10  4566.56
                             4570.07  4577.82  4590.24  4605.77  4616.35
                             4622.89  4623.08  4624.30

 Zero-point correction=                           0.179793 (Hartree/Particle)
 Thermal correction to Energy=                    0.190760
 Thermal correction to Enthalpy=                  0.191705
 Thermal correction to Gibbs Free Energy=         0.140536
 Sum of electronic and zero-point Energies=           -555.353276
 Sum of electronic and thermal Energies=              -555.342308
 Sum of electronic and thermal Enthalpies=            -555.341364
 Sum of electronic and thermal Free Energies=         -555.392533

                     E (Thermal)             CV                S
                      KCal/Mol        Cal/Mol-Kelvin    Cal/Mol-Kelvin
 Total                  119.704             42.373            107.694
 Electronic               0.000              0.000              0.000
 Translational            0.889              2.981             41.455
 Rotational               0.889              2.981             31.960
 Vibrational            117.927             36.411             34.279
 Vibration     1          0.593              1.985              6.372
 Vibration     2          0.595              1.979              5.023
 Vibration     3          0.596              1.977              4.750
 Vibration     4          0.616              1.910              2.766
 Vibration     5          0.617              1.906              2.714
 Vibration     6          0.667              1.748              1.672
 Vibration     7          0.687              1.690              1.466
 Vibration     8          0.756              1.496              1.009
 Vibration     9          0.773              1.451              0.931
 Vibration    10          0.775              1.445              0.922
 Vibration    11          0.833              1.302              0.719
 Vibration    12          0.898              1.156              0.560
 Vibration    13          0.899              1.154              0.558
 Vibration    14          0.904              1.143              0.548
 Vibration    15          0.925              1.098              0.506

 Optimization completed.
    -- Stationary point found.
 Normal termination of Gaussian 16 at Mon Sep 18 04:38:40 2023.
