 Gaussian 16, Revision B.01,
 Gaussian 16:  EM64L-G16RevB.01 20-Dec-2017

 ----------------------------------------------------------------------
 # opt freq b3lyp/6-31+g(d) geom=connectivity empiricaldispersion=gd3 v
 olume
 ----------------------------------------------------------------------

 -------------
 ML molecule99
 -------------
 Symbolic Z-matrix:
 Charge =  0 Multiplicity = 1

 SCF Done:  E(RB3LYP) =  -875.518716967     A.U. after   15 cycles
 SCF Done:  E(RB3LYP) =  -875.548204482     A.U. after   16 cycles
 SCF Done:  E(RB3LYP) =  -875.575563600     A.U. after   15 cycles
 SCF Done:  E(RB3LYP) =  -875.593576463     A.U. after   13 cycles
 SCF Done:  E(RB3LYP) =  -875.597938297     A.U. after   16 cycles
 SCF Done:  E(RB3LYP) =  -875.606643889     A.U. after   16 cycles
 SCF Done:  E(RB3LYP) =  -875.609942079     A.U. after   15 cycles
 SCF Done:  E(RB3LYP) =  -875.612202950     A.U. after   16 cycles
 SCF Done:  E(RB3LYP) =  -875.613290195     A.U. after   15 cycles
 SCF Done:  E(RB3LYP) =  -875.613638482     A.U. after   14 cycles
 SCF Done:  E(RB3LYP) =  -875.613861330     A.U. after   13 cycles
 SCF Done:  E(RB3LYP) =  -875.613860617     A.U. after   13 cycles
 SCF Done:  E(RB3LYP) =  -875.613869046     A.U. after   12 cycles
 SCF Done:  E(RB3LYP) =  -875.613869369     A.U. after   11 cycles
 SCF Done:  E(RB3LYP) =  -875.613869910     A.U. after   12 cycles
 SCF Done:  E(RB3LYP) =  -875.613869957     A.U. after   11 cycles
 SCF Done:  E(RB3LYP) =  -875.613869984     A.U. after    9 cycles
 SCF Done:  E(RB3LYP) =  -875.613869995     A.U. after   10 cycles
 SCF Done:  E(RB3LYP) =  -875.613869997     A.U. after    9 cycles
 Optimization completed.
    -- Stationary point found.
 Normal termination of Gaussian 16 at Fri Sep 15 08:24:39 2023.

 ---------------------------------------------------------------------
 #N Geom=AllCheck Guess=TCheck SCRF=Check GenChk RB3LYP/6-31+G(d) Freq
 ---------------------------------------------------------------------

 Structure from the checkpoint file:  "molecule_99.chk"
 -------------
 ML molecule99
 -------------
 Charge =  0 Multiplicity = 1

                         Standard orientation:
 ---------------------------------------------------------------------
 Center     Atomic      Atomic             Coordinates (Angstroms)
 Number     Number       Type             X           Y           Z
 ---------------------------------------------------------------------
      1          6           0        2.091687    1.578266    0.334736
      2          6           0        0.829113    2.102964    0.613714
      3          6           0       -0.303372    1.285234    0.613782
      4          6           0       -0.164484   -0.076370    0.323171
      5          6           0        1.091975   -0.619626    0.043989
      6          6           0        2.211211    0.213131    0.052165
      7          1           0        0.721882    3.160629    0.837750
      8          1           0        1.174637   -1.677445   -0.179212
      9          8           0       -1.214672   -0.965787    0.351375
     10          6           0       -2.505053   -0.529845    0.081651
     11          6           0       -2.805035    0.176124   -1.086717
     12          6           0       -3.506435   -0.895287    0.980472
     13          6           0       -4.131137    0.529408   -1.345073
     14          6           0       -4.831352   -0.543152    0.706905
     15          6           0       -5.147388    0.172409   -0.451747
     16          1           0       -4.370310    1.077792   -2.252490
     17          1           0       -5.615256   -0.827123    1.404039
     18          1           0       -1.282525    1.696435    0.835006
     19          1           0       -2.009257    0.440025   -1.776755
     20          1           0        2.969201    2.215993    0.331299
     21          1           0       -6.177720    0.446948   -0.660146
     22          1           0       -3.236975   -1.449978    1.874056
     23          6           0        3.575481   -0.375175   -0.194571
     24          9           0        4.396206    0.490771   -0.842414
     25          9           0        3.526194   -1.509815   -0.935516
     26          9           0        4.201204   -0.699340    0.971330
 ---------------------------------------------------------------------

 SCF Done:  E(RB3LYP) =  -875.613869997     A.U. after    1 cycles

 The electronic state is 1-A.
 Alpha  occ. eigenvalues --  -24.74976 -24.74876 -24.74445 -19.21145 -10.45153
 Alpha  occ. eigenvalues --  -10.27902 -10.26955 -10.23527 -10.22125 -10.21929
 Alpha  occ. eigenvalues --  -10.21820 -10.21788 -10.21384 -10.21310 -10.21170
 Alpha  occ. eigenvalues --  -10.20956 -10.20832  -1.31824  -1.23417  -1.22894
 Alpha  occ. eigenvalues --   -1.09982  -0.89058  -0.87077  -0.80240  -0.78730
 Alpha  occ. eigenvalues --   -0.76787  -0.74815  -0.71553  -0.65874  -0.64575
 Alpha  occ. eigenvalues --   -0.63017  -0.61722  -0.59610  -0.59355  -0.58104
 Alpha  occ. eigenvalues --   -0.53645  -0.52389  -0.50893  -0.50186  -0.48809
 Alpha  occ. eigenvalues --   -0.47590  -0.47383  -0.46416  -0.45928  -0.44385
 Alpha  occ. eigenvalues --   -0.43951  -0.43322  -0.42505  -0.42242  -0.41695
 Alpha  occ. eigenvalues --   -0.41603  -0.39400  -0.38318  -0.38255  -0.37572
 Alpha  occ. eigenvalues --   -0.35967  -0.34859  -0.28494  -0.27340  -0.27022
 Alpha  occ. eigenvalues --   -0.24284
 Alpha virt. eigenvalues --   -0.04845  -0.03350  -0.02628  -0.01738  -0.00437
 Alpha virt. eigenvalues --    0.00759   0.01879   0.02052   0.02655   0.03394
 Alpha virt. eigenvalues --    0.04122   0.04470   0.04650   0.05117   0.05758

 Mulliken charges:
               1
     1  C   -0.215569
     2  C   -0.433541
     3  C    0.509666
     4  C   -0.267298
     5  C    0.093879
     6  C   -0.885099
     7  H    0.192072
     8  H    0.219268
     9  O   -0.335594
    10  C   -0.096389
    11  C    0.093526
    12  C   -0.063228
    13  C   -0.161158
    14  C   -0.240762
    15  C   -0.212179
    16  H    0.185609
    17  H    0.186096
    18  H    0.207184
    19  H    0.196470
    20  H    0.207330
    21  H    0.182256
    22  H    0.194035
    23  C    1.336315
    24  F   -0.305799
    25  F   -0.316186
    26  F   -0.270905
 Sum of Mulliken charges =   0.00000

 Dipole moment (field-independent basis, Debye):
    X=             -3.6463    Y=              2.0649    Z=              0.2039  Tot=              4.1954
 Quadrupole moment (field-independent basis, Debye-Ang):
   XX=            -98.2762   YY=            -94.2684   ZZ=            -96.4990
   XY=              1.7852   XZ=              0.1331   YZ=             -1.3419

  Exact polarizability: 220.124   3.146 132.570  -3.179  -6.976 116.854
 Approx polarizability: 296.893  -0.244 223.871 -11.177 -16.427 189.354

                      1                      2                      3
                      A                      A                      A
 Frequencies --     10.1406                15.0700                33.3962
 Red. masses --     11.8756                 6.3308                 4.5456
 Frc consts  --      0.0007                 0.0008                 0.0030
 IR Inten    --      0.1586                 0.9051                 0.1446

                      4                      5                      6
                      A                      A                      A
 Frequencies --     80.1773               128.2360               148.7741
 Red. masses --      5.0807                 6.8030                 9.0373
 Frc consts  --      0.0192                 0.0659                 0.1179
 IR Inten    --      0.1499                 0.4150                 0.5998

                      7                      8                      9
                      A                      A                      A
 Frequencies --    216.9824               244.6422               267.7937
 Red. masses --      4.6089                 5.1357                 7.8693
 Frc consts  --      0.1278                 0.1811                 0.3325
 IR Inten    --      0.7563                 0.6273                 1.5243

                     10                     11                     12
                      A                      A                      A
 Frequencies --    327.5791               357.1631               383.4220
 Red. masses --      6.6735                 8.7730                 6.7004
 Frc consts  --      0.4219                 0.6594                 0.5804
 IR Inten    --      0.3302                 3.1372                 2.4363

                     13                     14                     15
                      A                      A                      A
 Frequencies --    422.7843               425.0087               457.9956
 Red. masses --      3.1193                 6.4537                 3.7231
 Frc consts  --      0.3285                 0.6868                 0.4601
 IR Inten    --      0.6466                 3.3646                 1.5162

                     16                     17                     18
                      A                      A                      A
 Frequencies --    490.5789               514.8835               562.7394
 Red. masses --      3.7930                 6.7928                11.7978
 Frc consts  --      0.5378                 1.0610                 2.2012
 IR Inten    --      9.9943                 6.8806                 0.0015

                     19                     20                     21
                      A                      A                      A
 Frequencies --    586.9569               608.8972               628.7092
 Red. masses --      7.6181                 5.3601                 6.5141
 Frc consts  --      1.5464                 1.1709                 1.5171
 IR Inten    --      1.7729                 3.0948                 0.8093

                     22                     23                     24
                      A                      A                      A
 Frequencies --    653.6892               665.5288               701.9119
 Red. masses --      6.2320                 7.6387                 2.1742
 Frc consts  --      1.5690                 1.9934                 0.6311
 IR Inten    --     12.1604                 3.8944                31.0175

                     25                     26                     27
                      A                      A                      A
 Frequencies --    707.1069               739.9959               779.6073
 Red. masses --      2.3175                 4.8887                 2.1074
 Frc consts  --      0.6827                 1.5773                 0.7547
 IR Inten    --     15.5959                12.2654                47.1516

                     28                     29                     30
                      A                      A                      A
 Frequencies --    801.7119               818.5232               843.3786
 Red. masses --      1.6627                 3.7346                 1.2504
 Frc consts  --      0.6297                 1.4742                 0.5240
 IR Inten    --     30.6810                10.5501                 0.4782

                     31                     32                     33
                      A                      A                      A
 Frequencies --    907.1337               916.1014               921.8566
 Red. masses --      1.4990                 1.4173                 1.5268
 Frc consts  --      0.7267                 0.7008                 0.7645
 IR Inten    --     23.2063                 8.5319                 7.2544

                     34                     35                     36
                      A                      A                      A
 Frequencies --    933.5559               976.1982               989.1173
 Red. masses --      4.9643                 1.3520                 1.3029
 Frc consts  --      2.5491                 0.7591                 0.7510
 IR Inten    --    125.1233                 0.1987                 0.3031

                     37                     38                     39
                      A                      A                      A
 Frequencies --    997.1949              1014.7898              1016.7164
 Red. masses --      1.2706                 6.1748                 6.2651
 Frc consts  --      0.7444                 3.7465                 3.8157
 IR Inten    --      0.1969                 2.0734                 0.5709

                     40                     41                     42
                      A                      A                      A
 Frequencies --   1048.4634              1085.1784              1105.7750
 Red. masses --      2.0833                 2.6415                 1.5239
 Frc consts  --      1.3493                 1.8327                 1.0978
 IR Inten    --     13.3637                82.5999                 7.6137

                     43                     44                     45
                      A                      A                      A
 Frequencies --   1120.0838              1123.9066              1167.1148
 Red. masses --      9.8825                 1.9349                 5.0164
 Frc consts  --      7.3050                 1.4400                 4.0260
 IR Inten    --    262.8587                74.0739               154.1012

                     46                     47                     48
                      A                      A                      A
 Frequencies --   1195.2760              1198.0663              1207.6270
 Red. masses --      1.2264                 1.2410                 1.2292
 Frc consts  --      1.0324                 1.0495                 1.0561
 IR Inten    --     20.9237                22.6639                10.9924

                     49                     50                     51
                      A                      A                      A
 Frequencies --   1219.0265              1269.4268              1321.4836
 Red. masses --      1.8364                 4.4987                 2.0205
 Frc consts  --      1.6079                 4.2713                 2.0789
 IR Inten    --     43.2134               229.8285               198.6168

                     52                     53                     54
                      A                      A                      A
 Frequencies --   1333.3998              1341.1941              1360.7535
 Red. masses --      4.3749                 1.8801                 2.3853
 Frc consts  --      4.5829                 1.9926                 2.6023
 IR Inten    --    387.4923                29.7120                 6.4189

                     55                     56                     57
                      A                      A                      A
 Frequencies --   1369.6761              1486.4276              1496.8847
 Red. masses --      3.7947                 3.0289                 2.3533
 Frc consts  --      4.1943                 3.9430                 3.1067
 IR Inten    --      7.8686               128.4122                33.6341

                     58                     59                     60
                      A                      A                      A
 Frequencies --   1530.8691              1533.1437              1635.9539
 Red. masses --      2.4525                 2.2822                 5.7487
 Frc consts  --      3.3863                 3.1606                 9.0648
 IR Inten    --     68.5990                55.5130                80.6830

                     61                     62                     63
                      A                      A                      A
 Frequencies --   1643.0137              1646.6590              1666.5689
 Red. masses --      6.1449                 5.6250                 5.9451
 Frc consts  --      9.7735                 8.9862                 9.7287
 IR Inten    --     32.5034                31.1212                10.0427

                     64                     65                     66
                      A                      A                      A
 Frequencies --   3183.6143              3192.4574              3196.0714
 Red. masses --      1.0858                 1.0893                 1.0884
 Frc consts  --      6.4839                 6.5409                 6.5505
 IR Inten    --      1.2145                 9.9045                 8.2522

                     67                     68                     69
                      A                      A                      A
 Frequencies --   3204.7963              3212.1519              3216.3467
 Red. masses --      1.0924                 1.0946                 1.0964
 Frc consts  --      6.6102                 6.6541                 6.6828
 IR Inten    --     27.1400                 9.1910                 3.3859

                     70                     71                     72
                      A                      A                      A
 Frequencies --   3220.5307              3225.5685              3231.5284
 Red. masses --      1.0914                 1.0951                 1.0917
 Frc consts  --      6.6694                 6.7133                 6.7168
 IR Inten    --      3.7602                 2.9498                 0.7398

 - Thermochemistry -
 -------------------
 Temperature   298.150 Kelvin.  Pressure   1.00000 Atm.
 Atom     1 has atomic number  6 and mass  12.00000

 Molecular mass:   238.06055 amu.
 Principal axes and moments of inertia in atomic units:
                           1         2         3
     Eigenvalues --  1289.804349348.142149682.17349
           X            0.99998   0.00491   0.00267
           Y           -0.00484   0.99962  -0.02697
           Z           -0.00281   0.02696   0.99963
 This molecule is an asymmetric top.
 Rotational symmetry number  1.
 Warning -- assumption of classical behavior for rotation
           may cause significant error
 Rotational temperatures (Kelvin)      0.06715     0.00927     0.00895
 Rotational constants (GHZ):           1.39924     0.19306     0.18640
 Zero-point vibrational energy     498155.4 (Joules/Mol)
                                  119.06201 (Kcal/Mol)
 Warning -- explicit consideration of  20 degrees of freedom as
           vibrations may cause significant error
 Vibrational temperatures:     14.59    21.68    48.05   115.36   184.50
          (Kelvin)            214.05   312.19   351.99   385.30   471.31
                              513.88   551.66   608.29   611.49   658.95
                              705.83   740.80   809.66   844.50   876.07
                              904.57   940.51   957.55  1009.89  1017.37
                             1064.69  1121.68  1153.48  1177.67  1213.43
                             1305.16  1318.07  1326.35  1343.18  1404.53
                             1423.12  1434.74  1460.06  1462.83  1508.51
                             1561.33  1590.96  1611.55  1617.05  1679.22
                             1719.74  1723.75  1737.51  1753.91  1826.42
                             1901.32  1918.46  1929.68  1957.82  1970.66
                             2138.64  2153.68  2202.58  2205.85  2353.77
                             2363.93  2369.18  2397.82  4580.51  4593.23
                             4598.43  4610.99  4621.57  4627.61  4633.63
                             4640.87  4649.45

 Zero-point correction=                           0.189737 (Hartree/Particle)
 Thermal correction to Energy=                    0.203421
 Thermal correction to Enthalpy=                  0.204366
 Thermal correction to Gibbs Free Energy=         0.145291
 Sum of electronic and zero-point Energies=           -875.424133
 Sum of electronic and thermal Energies=              -875.410449
 Sum of electronic and thermal Enthalpies=            -875.409504
 Sum of electronic and thermal Free Energies=         -875.468579

                     E (Thermal)             CV                S
                      KCal/Mol        Cal/Mol-Kelvin    Cal/Mol-Kelvin
 Total                  127.649             52.796            124.334
 Electronic               0.000              0.000              0.000
 Translational            0.889              2.981             42.303
 Rotational               0.889              2.981             33.123
 Vibrational            125.871             46.835             48.907
 Vibration     1          0.593              1.987              7.983
 Vibration     2          0.593              1.986              7.196
 Vibration     3          0.594              1.983              5.617
 Vibration     4          0.600              1.963              3.887
 Vibration     5          0.611              1.925              2.972
 Vibration     6          0.618              1.904              2.688
 Vibration     7          0.646              1.815              1.984
 Vibration     8          0.660              1.772              1.769
 Vibration     9          0.673              1.732              1.610
 Vibration    10          0.711              1.620              1.272
 Vibration    11          0.732              1.561              1.134
 Vibration    12          0.753              1.506              1.026
 Vibration    13          0.785              1.421              0.883
 Vibration    14          0.787              1.416              0.875
 Vibration    15          0.816              1.343              0.772
 Vibration    16          0.846              1.271              0.682
 Vibration    17          0.870              1.217              0.622
 Vibration    18          0.918              1.112              0.518
 Vibration    19          0.944              1.060              0.473
 Vibration    20          0.968              1.013              0.435

 Optimization completed.
    -- Stationary point found.
 Normal termination of Gaussian 16 at Fri Sep 15 08:29:41 2023.
