 Gaussian 16, Revision B.01,
 Gaussian 16:  EM64L-G16RevB.01 20-Dec-2017

 ----------------------------------------------------------------------
 # opt freq b3lyp/6-31+g(d) geom=connectivity empiricaldispersion=gd3 v
 olume
 ----------------------------------------------------------------------

 -------------------
 Title Card Required
 -------------------
 Symbolic Z-matrix:
 Charge =  0 Multiplicity = 1

 SCF Done:  E(RB3LYP) =  -578.818619396     A.U. after   14 cycles
 SCF Done:  E(RB3LYP) =  -578.818619467     A.U. after    9 cycles
 SCF Done:  E(RB3LYP) =  -578.818619409     A.U. after    9 cycles
 SCF Done:  E(RB3LYP) =  -578.818619484     A.U. after    9 cycles
 Optimization completed.
    -- Stationary point found.
 Normal termination of Gaussian 16 at Sun Sep 17 17:20:53 2023.

 ---------------------------------------------------------------------
 #N Geom=AllCheck Guess=TCheck SCRF=Check GenChk RB3LYP/6-31+G(d) Freq
 ---------------------------------------------------------------------

 Structure from the checkpoint file:  "MOLECULE_21.chk"
 -------------------
 Title Card Required
 -------------------
 Charge =  0 Multiplicity = 1

                         Standard orientation:
 ---------------------------------------------------------------------
 Center     Atomic      Atomic             Coordinates (Angstroms)
 Number     Number       Type             X           Y           Z
 ---------------------------------------------------------------------
      1          6           0        4.665064   -1.209914    0.002952
      2          6           0        3.270976   -1.214601    0.001276
      3          6           0        2.553240    0.000026    0.000499
      4          6           0        3.271044    1.214609    0.001471
      5          6           0        4.665134    1.209841    0.003146
      6          6           0        5.367899   -0.000055    0.003885
      7          1           0        5.205155   -2.153322    0.003523
      8          1           0        2.723727   -2.152850    0.000558
      9          1           0        2.723852    2.152891    0.000905
     10          1           0        5.205276    2.153219    0.003869
     11          1           0        6.454753   -0.000088    0.005199
     12          6           0        1.127919    0.000063   -0.001136
     13          6           0       -0.089635    0.000084   -0.003054
     14          6           0       -1.514508    0.000050   -0.003995
     15          6           0       -2.237153    1.210625   -0.006722
     16          6           0       -2.237097   -1.210564   -0.006479
     17          6           0       -3.630011    1.202748   -0.010216
     18          1           0       -1.695370    2.152143   -0.009741
     19          6           0       -3.629951   -1.202755   -0.009973
     20          1           0       -1.695266   -2.152057   -0.009309
     21          6           0       -4.353167   -0.000019   -0.009029
     22          1           0       -4.167039    2.149103   -0.015518
     23          1           0       -4.166934   -2.149138   -0.015085
     24          6           0       -5.863468   -0.000072    0.023715
     25          1           0       -6.233634   -0.000506    1.058243
     26          1           0       -6.276144    0.886883   -0.469993
     27          1           0       -6.276092   -0.886659   -0.470704
 ---------------------------------------------------------------------

 SCF Done:  E(RB3LYP) =  -578.818619484     A.U. after    1 cycles

 The electronic state is 1-A.
 Alpha  occ. eigenvalues --  -10.22349 -10.22077 -10.21054 -10.20373 -10.20372
 Alpha  occ. eigenvalues --  -10.20326 -10.20325 -10.20275 -10.20228 -10.20198
 Alpha  occ. eigenvalues --  -10.19899 -10.19898 -10.19600 -10.19369 -10.19322
 Alpha  occ. eigenvalues --   -0.87071  -0.86734  -0.80262  -0.78081  -0.75582
 Alpha  occ. eigenvalues --   -0.75492  -0.73460  -0.69367  -0.63018  -0.61726
 Alpha  occ. eigenvalues --   -0.61455  -0.60012  -0.55039  -0.53128  -0.48801
 Alpha  occ. eigenvalues --   -0.47492  -0.47011  -0.46149  -0.44376  -0.43222
 Alpha  occ. eigenvalues --   -0.43091  -0.42895  -0.42797  -0.39662  -0.38784
 Alpha  occ. eigenvalues --   -0.37313  -0.36716  -0.36089  -0.35728  -0.35078
 Alpha  occ. eigenvalues --   -0.31774  -0.27357  -0.27119  -0.26251  -0.26187
 Alpha  occ. eigenvalues --   -0.21492
 Alpha virt. eigenvalues --   -0.05603  -0.01906  -0.01710  -0.00565   0.00208
 Alpha virt. eigenvalues --    0.00793   0.01925   0.02005   0.02744   0.03578
 Alpha virt. eigenvalues --    0.04349   0.04610   0.04737   0.05017   0.05519

 Mulliken charges:
               1
     1  C   -0.144464
     2  C   -0.320865
     3  C    0.235423
     4  C   -0.320800
     5  C   -0.144429
     6  C   -0.197648
     7  H    0.181706
     8  H    0.191968
     9  H    0.191968
    10  H    0.181706
    11  H    0.180309
    12  C   -0.069077
    13  C   -0.005245
    14  C   -0.038913
    15  C   -0.043300
    16  C   -0.042921
    17  C   -0.473361
    18  H    0.191685
    19  C   -0.472445
    20  H    0.191685
    21  C    0.480649
    22  H    0.176823
    23  H    0.176826
    24  C   -0.754708
    25  H    0.228379
    26  H    0.209516
    27  H    0.209534
 Sum of Mulliken charges =   0.00000

 Dipole moment (field-independent basis, Debye):
    X=             -0.6837    Y=             -0.0002    Z=              0.0460  Tot=              0.6853
 Quadrupole moment (field-independent basis, Debye-Ang):
   XX=            -68.6866   YY=            -79.2723   ZZ=            -95.6063
   XY=              0.0004   XZ=             -0.2349   YZ=             -0.0001

  Exact polarizability: 360.816   0.001 163.989  -0.626  -0.001  92.422
 Approx polarizability: 495.212   0.000 278.271  -0.701  -0.002 136.509

                      1                      2                      3
                      A                      A                      A
 Frequencies --     18.1940                23.9370                39.7420
 Red. masses --      1.5283                 1.6951                 4.5082
 Frc consts  --      0.0003                 0.0006                 0.0042
 IR Inten    --      0.1646                 0.2000                 0.5190

                      4                      5                      6
                      A                      A                      A
 Frequencies --     41.8638               113.5448               138.1148
 Red. masses --      4.8303                 4.4761                 5.0152
 Frc consts  --      0.0050                 0.0340                 0.0564
 IR Inten    --      1.1693                 0.0290                 0.0027

                      7                      8                      9
                      A                      A                      A
 Frequencies --    216.8667               243.3468               339.6514
 Red. masses --      4.5282                 6.1126                 4.7041
 Frc consts  --      0.1255                 0.2133                 0.3197
 IR Inten    --      0.1863                 0.0010                 2.4151

                     10                     11                     12
                      A                      A                      A
 Frequencies --    343.3872               412.0327               414.2325
 Red. masses --      2.8439                 2.9285                 2.9433
 Frc consts  --      0.1976                 0.2929                 0.2976
 IR Inten    --      0.0008                 0.0005                 0.0008

                     13                     14                     15
                      A                      A                      A
 Frequencies --    433.6025               481.8848               505.9735
 Red. masses --      4.3455                 6.1175                 6.7295
 Frc consts  --      0.4814                 0.8370                 1.0151
 IR Inten    --      1.3465                 1.7415                10.3732

                     16                     17                     18
                      A                      A                      A
 Frequencies --    533.5106               547.6576               568.4702
 Red. masses --      2.8639                 7.8766                 4.0599
 Frc consts  --      0.4803                 1.3919                 0.7730
 IR Inten    --     22.2213                 0.0035                 1.7181

                     19                     20                     21
                      A                      A                      A
 Frequencies --    634.8844               659.2667               669.5429
 Red. masses --      6.5972                 7.0602                 5.4523
 Frc consts  --      1.5668                 1.8080                 1.4401
 IR Inten    --      0.0000                 0.1175                 3.2194

                     22                     23                     24
                      A                      A                      A
 Frequencies --    699.5801               716.4625               768.7452
 Red. masses --      1.9751                 3.3343                 1.7628
 Frc consts  --      0.5695                 1.0084                 0.6138
 IR Inten    --     33.5826                 2.8964                46.0242

                     25                     26                     27
                      A                      A                      A
 Frequencies --    795.0923               831.8121               847.7575
 Red. masses --      4.9774                 1.4788                 1.2497
 Frc consts  --      1.8539                 0.6029                 0.5292
 IR Inten    --      0.2986                49.1958                 0.0189

                     28                     29                     30
                      A                      A                      A
 Frequencies --    852.6351               864.7376               927.2501
 Red. masses --      1.2483                 6.1690                 1.4111
 Frc consts  --      0.5347                 2.7179                 0.7148
 IR Inten    --      0.0000                 0.4513                 3.2349

                     31                     32                     33
                      A                      A                      A
 Frequencies --    966.2175               975.1307               978.5431
 Red. masses --      1.2905                 1.3571                 1.3636
 Frc consts  --      0.7098                 0.7603                 0.7693
 IR Inten    --      0.7942                 0.0007                 0.0000

                     34                     35                     36
                      A                      A                      A
 Frequencies --   1000.3618              1012.3484              1020.9908
 Red. masses --      1.2789                 6.2634                 1.4043
 Frc consts  --      0.7541                 3.7820                 0.8625
 IR Inten    --      0.0377                 0.0570                 0.0446

                     37                     38                     39
                      A                      A                      A
 Frequencies --   1038.8057              1052.0541              1070.2537
 Red. masses --      2.9202                 2.2565                 1.5258
 Frc consts  --      1.8567                 1.4715                 1.0297
 IR Inten    --      1.4086                 5.4060                17.1878

                     40                     41                     42
                      A                      A                      A
 Frequencies --   1108.8423              1154.1035              1162.8504
 Red. masses --      1.6231                 1.3479                 3.8269
 Frc consts  --      1.1758                 1.0578                 3.0489
 IR Inten    --      5.4356                 5.6581                 0.5035

                     43                     44                     45
                      A                      A                      A
 Frequencies --   1199.5261              1216.5590              1226.0695
 Red. masses --      1.1078                 1.1483                 1.1543
 Frc consts  --      0.9392                 1.0013                 1.0223
 IR Inten    --      0.0001                 0.0705                 2.4451

                     46                     47                     48
                      A                      A                      A
 Frequencies --   1237.6643              1322.6917              1326.4970
 Red. masses --      3.0429                 3.9503                 3.7192
 Frc consts  --      2.7463                 4.0719                 3.8557
 IR Inten    --      2.5033                 0.0040                 0.0361

                     49                     50                     51
                      A                      A                      A
 Frequencies --   1348.5882              1349.1965              1363.8134
 Red. masses --      3.8494                 1.4936                 1.6924
 Frc consts  --      4.1248                 1.6019                 1.8547
 IR Inten    --      5.7791                 0.0838                 0.3053

                     52                     53                     54
                      A                      A                      A
 Frequencies --   1438.5252              1448.1243              1481.5011
 Red. masses --      1.2337                 2.5016                 2.1897
 Frc consts  --      1.5042                 3.0908                 2.8317
 IR Inten    --      0.4207                 1.0114                 3.3270

                     55                     56                     57
                      A                      A                      A
 Frequencies --   1510.5514              1512.7287              1531.3971
 Red. masses --      1.1064                 1.0527                 2.1626
 Frc consts  --      1.4875                 1.4193                 2.9881
 IR Inten    --      9.7146                 7.0580                 5.2834

                     58                     59                     60
                      A                      A                      A
 Frequencies --   1557.8861              1600.8419              1616.1647
 Red. masses --      2.6431                 5.0995                 4.9736
 Frc consts  --      3.7795                 7.6997                 7.6541
 IR Inten    --     59.9255                 0.7094                 1.6352

                     61                     62                     63
                      A                      A                      A
 Frequencies --   1647.8386              1661.9350              2305.2565
 Red. masses --      5.2837                 5.5754                11.9972
 Frc consts  --      8.4531                 9.0731                37.5636
 IR Inten    --     25.0914                 0.1835                 4.9145

                     64                     65                     66
                      A                      A                      A
 Frequencies --   3032.7045              3088.7123              3114.8385
 Red. masses --      1.0406                 1.0953                 1.1027
 Frc consts  --      5.6388                 6.1563                 6.3033
 IR Inten    --     47.9695                21.6892                16.9726

                     67                     68                     69
                      A                      A                      A
 Frequencies --   3173.3187              3174.0308              3178.5768
 Red. masses --      1.0887                 1.0887                 1.0855
 Frc consts  --      6.4590                 6.4622                 6.4616
 IR Inten    --     13.8684                30.1523                 2.4302

                     70                     71                     72
                      A                      A                      A
 Frequencies --   3187.0319              3199.0171              3202.8615
 Red. masses --      1.0886                 1.0919                 1.0931
 Frc consts  --      6.5144                 6.5839                 6.6067
 IR Inten    --      6.2733                22.4261                19.7520

                     73                     74                     75
                      A                      A                      A
 Frequencies --   3204.6047              3206.2239              3210.9858
 Red. masses --      1.0940                 1.0941                 1.0974
 Frc consts  --      6.6194                 6.6269                 6.6664
 IR Inten    --      0.0744                27.3269                13.1486

 - Thermochemistry -
 -------------------
 Temperature   298.150 Kelvin.  Pressure   1.00000 Atm.
 Atom     1 has atomic number  6 and mass  12.00000

 Molecular mass:   192.09390 amu.
 Principal axes and moments of inertia in atomic units:
                           1         2         3
     Eigenvalues --   646.129469264.989989899.78361
           X            1.00000   0.00000  -0.00014
           Y            0.00000   1.00000   0.00001
           Z            0.00014  -0.00001   1.00000
 This molecule is an asymmetric top.
 Rotational symmetry number  1.
 Warning -- assumption of classical behavior for rotation
           may cause significant error
 Rotational temperatures (Kelvin)      0.13405     0.00935     0.00875
 Rotational constants (GHZ):           2.79316     0.19479     0.18230
 Zero-point vibrational energy     574808.9 (Joules/Mol)
                                  137.38263 (Kcal/Mol)
 Warning -- explicit consideration of  18 degrees of freedom as
           vibrations may cause significant error
 Vibrational temperatures:     26.18    34.44    57.18    60.23   163.37
          (Kelvin)            198.72   312.02   350.12   488.68   494.06
                              592.82   595.99   623.86   693.32   727.98
                              767.60   787.96   817.90   913.46   948.54
                              963.32  1006.54  1030.83  1106.05  1143.96
                             1196.79  1219.73  1226.75  1244.16  1334.11
                             1390.17  1403.00  1407.91  1439.30  1456.54
                             1468.98  1494.61  1513.67  1539.86  1595.38
                             1660.50  1673.08  1725.85  1750.36  1764.04
                             1780.72  1903.06  1908.53  1940.32  1941.19
                             1962.22  2069.72  2083.53  2131.55  2173.35
                             2176.48  2203.34  2241.45  2303.25  2325.30
                             2370.87  2391.15  3316.75  4363.39  4443.97
                             4481.56  4565.70  4566.72  4573.26  4585.43
                             4602.67  4608.20  4610.71  4613.04  4619.89

 Zero-point correction=                           0.218933 (Hartree/Particle)
 Thermal correction to Energy=                    0.231945
 Thermal correction to Enthalpy=                  0.232889
 Thermal correction to Gibbs Free Energy=         0.175961
 Sum of electronic and zero-point Energies=           -578.599686
 Sum of electronic and thermal Energies=              -578.586674
 Sum of electronic and thermal Enthalpies=            -578.585730
 Sum of electronic and thermal Free Energies=         -578.642658

                     E (Thermal)             CV                S
                      KCal/Mol        Cal/Mol-Kelvin    Cal/Mol-Kelvin
 Total                  145.548             49.418            119.816
 Electronic               0.000              0.000              0.000
 Translational            0.889              2.981             41.664
 Rotational               0.889              2.981             32.449
 Vibrational            143.770             43.457             45.702
 Vibration     1          0.593              1.986              6.822
 Vibration     2          0.593              1.985              6.277
 Vibration     3          0.594              1.981              5.272
 Vibration     4          0.594              1.980              5.169
 Vibration     5          0.607              1.938              3.207
 Vibration     6          0.614              1.915              2.830
 Vibration     7          0.646              1.815              1.985
 Vibration     8          0.659              1.774              1.778
 Vibration     9          0.720              1.596              1.214
 Vibration    10          0.722              1.589              1.196
 Vibration    11          0.776              1.444              0.919
 Vibration    12          0.778              1.439              0.912
 Vibration    13          0.794              1.397              0.847
 Vibration    14          0.838              1.290              0.705
 Vibration    15          0.861              1.237              0.643
 Vibration    16          0.888              1.176              0.579
 Vibration    17          0.903              1.145              0.549
 Vibration    18          0.924              1.099              0.507

 Optimization completed.
    -- Stationary point found.
 Normal termination of Gaussian 16 at Sun Sep 17 17:24:34 2023.
