 Gaussian 16, Revision B.01,
 Gaussian 16:  EM64L-G16RevB.01 20-Dec-2017

 ----------------------------------------------------------------------
 # opt=cartesian freq b3lyp/6-31+g(d) nosymm empiricaldispersion=gd3 vo
 lume scf=maxcycle=512
 ----------------------------------------------------------------------

 -------------------
 Title Card Required
 -------------------
 Symbolic Z-matrix:
 Charge =  0 Multiplicity = 1

 SCF Done:  E(RB3LYP) =  -577.742316738     A.U. after   15 cycles
 SCF Done:  E(RB3LYP) =  -577.742313033     A.U. after   12 cycles
 SCF Done:  E(RB3LYP) =  -577.742316721     A.U. after    9 cycles
 SCF Done:  E(RB3LYP) =  -577.742316744     A.U. after    8 cycles
 Optimization completed.
    -- Stationary point found.
 Normal termination of Gaussian 16 at Fri Sep 22 19:34:41 2023.

 ---------------------------------------------------------------------
 #N Geom=AllCheck Guess=TCheck SCRF=Check GenChk RB3LYP/6-31+G(d) Freq
 ---------------------------------------------------------------------

 Structure from the checkpoint file:  "molecule_39.chk"
 -------------------
 Title Card Required
 -------------------
 Charge =  0 Multiplicity = 1

                          Input orientation:
 ---------------------------------------------------------------------
 Center     Atomic      Atomic             Coordinates (Angstroms)
 Number     Number       Type             X           Y           Z
 ---------------------------------------------------------------------
      1          6           0       -0.003382   -0.017668    0.114834
      2          6           0        0.038181    0.012554    1.331359
      3          6           0        0.085277    0.046296    2.694185
      4          6           0        0.126766    0.077337    3.914301
      5          6           0        0.174269    0.115234    5.335686
      6          6           0        0.941250    1.090871    6.005426
      7          6           0       -0.541900   -0.823963    6.106443
      8          6           0        0.984113    1.120413    7.397061
      9          1           0        1.500796    1.817830    5.423976
     10          6           0       -0.488595   -0.781240    7.497215
     11          1           0       -1.133576   -1.583202    5.603322
     12          6           0        0.270597    0.190033    8.168570
     13          1           0        1.584042    1.879423    7.894722
     14          1           0       -1.045910   -1.516581    8.073768
     15          6           0        0.293171    0.251072    9.677532
     16          1           0        1.231473    0.677951   10.048682
     17          1           0       -0.524814    0.879627   10.055596
     18          1           0        0.172435   -0.743273   10.121734
     19          6           0       -0.029926   -0.072405   -1.341623
     20          1           0       -0.178607   -1.116480   -1.670646
     21          1           0        0.945300    0.256971   -1.742770
     22          8           0       -1.072421    0.754215   -1.846772
     23          6           0       -1.134284    0.731003   -3.263983
     24          1           0       -1.957165    1.389336   -3.552059
     25          1           0       -0.199329    1.101453   -3.715089
     26          1           0       -1.333554   -0.284675   -3.642877
 ---------------------------------------------------------------------

 SCF Done:  E(RB3LYP) =  -577.742316744     A.U. after    1 cycles

 Alpha  occ. eigenvalues --  -19.16956 -10.26956 -10.23903 -10.22578 -10.21544
 Alpha  occ. eigenvalues --  -10.21189 -10.21051 -10.20826 -10.20824 -10.20800
 Alpha  occ. eigenvalues --  -10.20712 -10.20290 -10.20289 -10.19613  -1.04860
 Alpha  occ. eigenvalues --   -0.87491  -0.81221  -0.79662  -0.76555  -0.75933
 Alpha  occ. eigenvalues --   -0.72748  -0.69845  -0.66579  -0.62142  -0.62040
 Alpha  occ. eigenvalues --   -0.58847  -0.53910  -0.50771  -0.49951  -0.49379
 Alpha  occ. eigenvalues --   -0.47912  -0.47433  -0.43817  -0.43322  -0.43136
 Alpha  occ. eigenvalues --   -0.42312  -0.41510  -0.40020  -0.38399  -0.36566
 Alpha  occ. eigenvalues --   -0.35685  -0.34567  -0.33922  -0.33836  -0.28639
 Alpha  occ. eigenvalues --   -0.27645  -0.26603  -0.24418  -0.22549
 Alpha virt. eigenvalues --   -0.05877  -0.02215  -0.01778   0.00385   0.00435
 Alpha virt. eigenvalues --    0.01162   0.01823   0.02271   0.02830   0.04029
 Alpha virt. eigenvalues --    0.04174   0.04482   0.05126   0.05234   0.06005

 Mulliken charges:
               1
     1  C   -0.289146
     2  C    0.846835
     3  C    1.336535
     4  C   -1.173866
     5  C   -0.123043
     6  C   -0.181422
     7  C   -0.169834
     8  C   -0.228779
     9  H    0.196549
    10  C   -0.197118
    11  H    0.196487
    12  C    0.422237
    13  H    0.178622
    14  H    0.178711
    15  C   -0.719954
    16  H    0.210272
    17  H    0.230087
    18  H    0.210942
    19  C   -1.247147
    20  H    0.203012
    21  H    0.203019
    22  O   -0.315890
    23  C   -0.335451
    24  H    0.205759
    25  H    0.181304
    26  H    0.181278
 Sum of Mulliken charges =   0.00000

 Dipole moment (field-independent basis, Debye):
    X=              0.8434    Y=             -0.6682    Z=              0.4240  Tot=              1.1566
 Quadrupole moment (field-independent basis, Debye-Ang):
   XX=            -84.7582   YY=            -82.3471   ZZ=            -44.2617
   XY=              4.7609   XZ=              0.9328   YZ=              1.0184

  Exact polarizability: 105.047  16.216 112.844  12.791   1.793 356.766
 Approx polarizability: 155.632  32.944 172.431  11.266   6.837 501.053

                      1                      2                      3
                      A                      A                      A
 Frequencies --     10.1736                27.9573                31.7258
 Red. masses --      3.2125                 1.0433                 4.8446
 Frc consts  --      0.0002                 0.0005                 0.0029
 IR Inten    --      0.8316                 0.5908                 1.9800

                      4                      5                      6
                      A                      A                      A
 Frequencies --     39.7871                76.1458                77.9366
 Red. masses --      2.8318                 3.0460                 4.9392
 Frc consts  --      0.0026                 0.0104                 0.0177
 IR Inten    --      6.2679                 3.3991                 0.4185

                      7                      8                      9
                      A                      A                      A
 Frequencies --    152.6293               159.2452               231.6948
 Red. masses --      4.1436                 5.3876                 1.1962
 Frc consts  --      0.0569                 0.0805                 0.0378
 IR Inten    --      0.6066                 0.4974                 5.0094

                     10                     11                     12
                      A                      A                      A
 Frequencies --    254.8658               270.0743               292.7804
 Red. masses --      5.4283                 4.5931                 4.7239
 Frc consts  --      0.2077                 0.1974                 0.2386
 IR Inten    --      0.6337                 0.8126                 0.4633

                     13                     14                     15
                      A                      A                      A
 Frequencies --    349.6651               365.1688               412.3901
 Red. masses --      3.0125                 4.0080                 2.9478
 Frc consts  --      0.2170                 0.3149                 0.2954
 IR Inten    --      0.0495                 0.8271                 0.0030

                     16                     17                     18
                      A                      A                      A
 Frequencies --    421.8307               475.3892               495.5760
 Red. masses --      5.0550                 6.2345                 6.4262
 Frc consts  --      0.5300                 0.8301                 0.9299
 IR Inten    --      4.7533                 8.2269                 1.3005

                     19                     20                     21
                      A                      A                      A
 Frequencies --    535.8717               611.4582               626.5696
 Red. masses --      3.2391                11.0032                 5.2016
 Frc consts  --      0.5480                 2.4238                 1.2032
 IR Inten    --     10.1485                 0.1222                 0.0803

                     22                     23                     24
                      A                      A                      A
 Frequencies --    659.5690               674.2036               717.9808
 Red. masses --      7.1770                10.3102                 3.3249
 Frc consts  --      1.8395                 2.7612                 1.0098
 IR Inten    --      0.1462                 1.2558                 1.4408

                     25                     26                     27
                      A                      A                      A
 Frequencies --    795.4469               831.9793               848.6744
 Red. masses --      4.6616                 1.4654                 1.2485
 Frc consts  --      1.7378                 0.5976                 0.5298
 IR Inten    --      0.2668                46.5166                 0.0143

                     28                     29                     30
                      A                      A                      A
 Frequencies --    867.9002               961.1354               969.4307
 Red. masses --      5.2006                 4.8504                 1.2964
 Frc consts  --      2.3080                 2.6400                 0.7178
 IR Inten    --      2.2464                41.4074                 0.9495

                     31                     32                     33
                      A                      A                      A
 Frequencies --    977.2010              1017.8134              1021.6501
 Red. masses --      1.3583                 1.5900                 1.4046
 Frc consts  --      0.7642                 0.9705                 0.8638
 IR Inten    --      0.0005                 2.5030                 0.0550

                     34                     35                     36
                      A                      A                      A
 Frequencies --   1038.9224              1070.5951              1117.4373
 Red. masses --      2.9456                 1.5363                 6.1257
 Frc consts  --      1.8732                 1.0375                 4.5066
 IR Inten    --      3.9512                18.7608               130.3822

                     37                     38                     39
                      A                      A                      A
 Frequencies --   1145.2614              1154.5446              1182.4584
 Red. masses --      5.1064                 1.3505                 1.2687
 Frc consts  --      3.9462                 1.0606                 1.0452
 IR Inten    --    174.8581                 4.6908                 3.1862

                     40                     41                     42
                      A                      A                      A
 Frequencies --   1218.9643              1225.8605              1237.5478
 Red. masses --      1.5093                 1.1441                 3.1058
 Frc consts  --      1.3213                 1.0130                 2.8025
 IR Inten    --     45.8009                 6.4898                 3.6532

                     43                     44                     45
                      A                      A                      A
 Frequencies --   1265.4303              1323.7516              1349.5055
 Red. masses --      1.0708                 4.4481                 1.5022
 Frc consts  --      1.0102                 4.5924                 1.6118
 IR Inten    --      4.9027                 0.1745                 0.1563

                     46                     47                     48
                      A                      A                      A
 Frequencies --   1352.3444              1422.8653              1438.5907
 Red. masses --      3.4401                 1.4929                 1.2327
 Frc consts  --      3.7068                 1.7807                 1.5031
 IR Inten    --      3.2948               237.5282                 0.1638

                     49                     50                     51
                      A                      A                      A
 Frequencies --   1447.9528              1489.6111              1507.3454
 Red. masses --      2.4931                 1.1567                 1.0467
 Frc consts  --      3.0796                 1.5122                 1.4012
 IR Inten    --      1.6565                 0.5151                 7.7749

                     52                     53                     54
                      A                      A                      A
 Frequencies --   1509.0094              1509.8208              1512.9099
 Red. masses --      1.0783                 1.1074                 1.0536
 Frc consts  --      1.4466                 1.4873                 1.4209
 IR Inten    --      1.2598                10.3434                 7.1255

                     55                     56                     57
                      A                      A                      A
 Frequencies --   1526.5414              1553.8202              1599.9870
 Red. masses --      1.0648                 2.5466                 5.0564
 Frc consts  --      1.4620                 3.6226                 7.6264
 IR Inten    --      5.2912                16.6399                 0.4421

                     58                     59                     60
                      A                      A                      A
 Frequencies --   1658.5862              2250.1783              2342.3064
 Red. masses --      5.4932                11.9683                11.9528
 Frc consts  --      8.9032                35.7041                38.6374
 IR Inten    --     12.5658                 0.5116                75.6892

                     61                     62                     63
                      A                      A                      A
 Frequencies --   2957.3582              2977.7115              2985.6381
 Red. masses --      1.0532                 1.1047                 1.0370
 Frc consts  --      5.4271                 5.7711                 5.4464
 IR Inten    --     38.4196                41.2554               121.9316

                     64                     65                     66
                      A                      A                      A
 Frequencies --   3031.7791              3033.9935              3090.4818
 Red. masses --      1.1054                 1.0405                 1.0953
 Frc consts  --      5.9861                 5.6434                 6.1636
 IR Inten    --     60.0834                41.7982                20.7870

                     67                     68                     69
                      A                      A                      A
 Frequencies --   3116.7159              3143.3997              3175.4360
 Red. masses --      1.1028                 1.0965                 1.0888
 Frc consts  --      6.3115                 6.3833                 6.4686
 IR Inten    --     16.3972                25.3222                14.1029

                     70                     71                     72
                      A                      A                      A
 Frequencies --   3176.2608              3205.7370              3207.2814
 Red. masses --      1.0889                 1.0932                 1.0941
 Frc consts  --      6.4725                 6.6191                 6.6313
 IR Inten    --     25.6138                17.9062                 0.1648

 - Thermochemistry -
 -------------------
 Temperature   298.150 Kelvin.  Pressure   1.00000 Atm.
 Atom     1 has atomic number  6 and mass  12.00000

 Molecular mass:   184.08882 amu.
 Principal axes and moments of inertia in atomic units:
                           1         2         3
     Eigenvalues --   442.29370********************
           X            0.09218   0.60297   0.79242
           Y           -0.02248   0.79686  -0.60374
           Z            0.99549  -0.03784  -0.08701
 This molecule is an asymmetric top.
 Rotational symmetry number  1.
 Warning -- assumption of classical behavior for rotation
           may cause significant error
 Rotational temperatures (Kelvin)      0.19583     0.00751     0.00737
 Rotational constants (GHZ):           4.08041     0.15656     0.15355
 Zero-point vibrational energy     549180.8 (Joules/Mol)
                                  131.25736 (Kcal/Mol)
 Warning -- explicit consideration of  20 degrees of freedom as
           vibrations may cause significant error
 Vibrational temperatures:     14.64    40.22    45.65    57.24   109.56
          (Kelvin)            112.13   219.60   229.12   333.36   366.69
                              388.58   421.25   503.09   525.40   593.34
                              606.92   683.98   713.02   771.00   879.75
                              901.49   948.97   970.03  1033.01  1144.47
                             1197.03  1221.05  1248.71  1382.86  1394.79
                             1405.97  1464.41  1469.93  1494.78  1540.35
                             1607.74  1647.78  1661.13  1701.29  1753.82
                             1763.74  1780.56  1820.67  1904.58  1941.64
                             1945.72  2047.19  2069.81  2083.28  2143.22
                             2168.73  2171.13  2172.30  2176.74  2196.35
                             2235.60  2302.02  2386.34  3237.50  3370.06
                             4254.98  4284.26  4295.67  4362.05  4365.24
                             4446.51  4484.26  4522.65  4568.74  4569.93
                             4612.34  4614.56

 Zero-point correction=                           0.209172 (Hartree/Particle)
 Thermal correction to Energy=                    0.223619
 Thermal correction to Enthalpy=                  0.224563
 Thermal correction to Gibbs Free Energy=         0.163532
 Sum of electronic and zero-point Energies=           -577.533145
 Sum of electronic and thermal Energies=              -577.518698
 Sum of electronic and thermal Enthalpies=            -577.517754
 Sum of electronic and thermal Free Energies=         -577.578784

                     E (Thermal)             CV                S
                      KCal/Mol        Cal/Mol-Kelvin    Cal/Mol-Kelvin
 Total                  140.323             50.797            128.449
 Electronic               0.000              0.000              0.000
 Translational            0.889              2.981             41.537
 Rotational               0.889              2.981             32.460
 Vibrational            138.545             44.835             54.452
 Vibration     1          0.593              1.987              7.977
 Vibration     2          0.593              1.984              5.969
 Vibration     3          0.594              1.983              5.718
 Vibration     4          0.594              1.981              5.270
 Vibration     5          0.599              1.965              3.988
 Vibration     6          0.599              1.964              3.942
 Vibration     7          0.619              1.900              2.639
 Vibration     8          0.621              1.892              2.559
 Vibration     9          0.653              1.793              1.866
 Vibration    10          0.665              1.755              1.697
 Vibration    11          0.674              1.728              1.596
 Vibration    12          0.688              1.687              1.458
 Vibration    13          0.727              1.576              1.168
 Vibration    14          0.738              1.544              1.100
 Vibration    15          0.776              1.443              0.918
 Vibration    16          0.784              1.423              0.886
 Vibration    17          0.832              1.305              0.723
 Vibration    18          0.851              1.260              0.669
 Vibration    19          0.891              1.171              0.574
 Vibration    20          0.971              1.008              0.430

 Normal termination of Gaussian 16 at Fri Sep 22 19:38:23 2023.
