 Gaussian 16, Revision B.01,
 Gaussian 16:  EM64L-G16RevB.01 20-Dec-2017

 ---------------------------------------------------------
 # opt freq b3lyp/6-31+g(d) empiricaldispersion=gd3 volume
 ---------------------------------------------------------

 -------------------
 Title Card Required
 -------------------
 Symbolic Z-matrix:
 Charge =  0 Multiplicity = 1

 SCF Done:  E(RB3LYP) =  -768.558040285     A.U. after   14 cycles
 SCF Done:  E(RB3LYP) =  -768.559612219     A.U. after   12 cycles
 SCF Done:  E(RB3LYP) =  -768.559897248     A.U. after   11 cycles
 SCF Done:  E(RB3LYP) =  -768.559925333     A.U. after   11 cycles
 SCF Done:  E(RB3LYP) =  -768.559926567     A.U. after   10 cycles
 SCF Done:  E(RB3LYP) =  -768.559926515     A.U. after   10 cycles
 SCF Done:  E(RB3LYP) =  -768.559926621     A.U. after   10 cycles
 Optimization completed.
    -- Stationary point found.
 Normal termination of Gaussian 16 at Mon Sep 18 04:18:38 2023.

 ---------------------------------------------------------------------
 #N Geom=AllCheck Guess=TCheck SCRF=Check GenChk RB3LYP/6-31+G(d) Freq
 ---------------------------------------------------------------------

 Structure from the checkpoint file:  "molecule_29.chk"
 -------------------
 Title Card Required
 -------------------
 Charge =  0 Multiplicity = 1

                         Standard orientation:
 ---------------------------------------------------------------------
 Center     Atomic      Atomic             Coordinates (Angstroms)
 Number     Number       Type             X           Y           Z
 ---------------------------------------------------------------------
      1          6           0        4.142295    1.366682   -0.000006
      2          6           0        2.755346    1.360927    0.000027
      3          6           0        2.033115    0.145184    0.000026
      4          6           0        2.763061   -1.057129   -0.000008
      5          6           0        4.159279   -1.059410   -0.000041
      6          6           0        4.856229    0.156936   -0.000040
      7          1           0        4.700075    2.298354   -0.000005
      8          1           0        2.210942    2.300718    0.000055
      9          1           0        2.227706   -2.002256   -0.000008
     10          1           0        4.684968   -2.007565   -0.000066
     11          6           0        0.609037    0.140655    0.000065
     12          6           0       -0.609036    0.140629    0.000089
     13          6           0       -2.033114    0.145167    0.000055
     14          6           0       -2.755338    1.360914    0.000004
     15          6           0       -2.763067   -1.057141    0.000077
     16          6           0       -4.142286    1.366678   -0.000023
     17          1           0       -2.210928    2.300703   -0.000013
     18          6           0       -4.159286   -1.059414    0.000050
     19          1           0       -2.227718   -2.002272    0.000117
     20          6           0       -4.856228    0.156936   -0.000001
     21          1           0       -4.700061    2.298354   -0.000062
     22          1           0       -4.684980   -2.007566    0.000068
     23          8           0        6.216994    0.272902   -0.000071
     24          6           0        7.002245   -0.913204   -0.000099
     25          1           0        6.812186   -1.517926    0.896993
     26          1           0        6.812154   -1.517904   -0.897200
     27          1           0        8.041649   -0.580334   -0.000114
     28          8           0       -6.216992    0.272911   -0.000032
     29          6           0       -7.002251   -0.913190   -0.000001
     30          1           0       -8.041653   -0.580314   -0.000026
     31          1           0       -6.812168   -1.517933   -0.897074
     32          1           0       -6.812191   -1.517871    0.897118
 ---------------------------------------------------------------------

 SCF Done:  E(RB3LYP) =  -768.559926621     A.U. after    1 cycles

 The electronic state is 1-A.
 Alpha  occ. eigenvalues --  -19.19361 -19.19361 -10.25997 -10.25997 -10.25022
 Alpha  occ. eigenvalues --  -10.25022 -10.21466 -10.21466 -10.20419 -10.20419
 Alpha  occ. eigenvalues --  -10.20253 -10.20253 -10.20041 -10.20041 -10.19566
 Alpha  occ. eigenvalues --  -10.19566 -10.18932 -10.18714  -1.07630  -1.07630
 Alpha  occ. eigenvalues --   -0.86638  -0.86389  -0.79306  -0.77611  -0.75968
 Alpha  occ. eigenvalues --   -0.75822  -0.73559  -0.71430  -0.69164  -0.62592
 Alpha  occ. eigenvalues --   -0.62150  -0.61611  -0.60066  -0.55231  -0.54518
 Alpha  occ. eigenvalues --   -0.52944  -0.50750  -0.49360  -0.49150  -0.47815
 Alpha  occ. eigenvalues --   -0.47815  -0.45596  -0.45520  -0.43342  -0.43332
 Alpha  occ. eigenvalues --   -0.42687  -0.42512  -0.40195  -0.39380  -0.39157
 Alpha  occ. eigenvalues --   -0.38898  -0.37274  -0.37087  -0.35368  -0.33817
 Alpha  occ. eigenvalues --   -0.33731  -0.33666  -0.29005  -0.26829  -0.26284
 Alpha  occ. eigenvalues --   -0.26236  -0.24349  -0.19772
 Alpha virt. eigenvalues --   -0.04337  -0.01784  -0.01574   0.00007   0.00259
 Alpha virt. eigenvalues --    0.00731   0.01387   0.02081   0.02464   0.02865
 Alpha virt. eigenvalues --    0.03308   0.04181   0.04406   0.04512   0.04594

 Mulliken charges:
               1
     1  C   -0.205646
     2  C   -0.396116
     3  C    0.285709
     4  C   -0.951907
     5  C    0.635484
     6  C   -0.033972
     7  H    0.192961
     8  H    0.193910
     9  H    0.192359
    10  H    0.177650
    11  C   -0.009918
    12  C   -0.009923
    13  C    0.285673
    14  C   -0.396067
    15  C   -0.951784
    16  C   -0.205668
    17  H    0.193910
    18  C    0.635365
    19  H    0.192359
    20  C   -0.033950
    21  H    0.192962
    22  H    0.177650
    23  O   -0.377257
    24  C   -0.321935
    25  H    0.204561
    26  H    0.204561
    27  H    0.209553
    28  O   -0.377258
    29  C   -0.321939
    30  H    0.209553
    31  H    0.204561
    32  H    0.204561
 Sum of Mulliken charges =   0.00000

 Dipole moment (field-independent basis, Debye):
    X=              0.0000    Y=             -2.5835    Z=             -0.0001  Tot=              2.5835
 Quadrupole moment (field-independent basis, Debye-Ang):
   XX=            -73.7922   YY=            -95.1733   ZZ=           -112.3653
   XY=              0.0000   XZ=             -0.0006   YZ=              0.0000

  Exact polarizability: 428.545   0.000 178.657  -0.002   0.000 106.939
 Approx polarizability: 563.939   0.001 300.754  -0.003  -0.001 158.339

                      1                      2                      3
                      A                      A                      A
 Frequencies --     18.1886                27.9346                29.3125
 Red. masses --      3.4157                 5.4834                 5.2672
 Frc consts  --      0.0007                 0.0025                 0.0027
 IR Inten    --      0.0000                 0.7952                 0.6165

                      4                      5                      6
                      A                      A                      A
 Frequencies --     65.5334                92.6172               117.8938
 Red. masses --      3.7713                 3.5527                 5.4493
 Frc consts  --      0.0095                 0.0180                 0.0446
 IR Inten    --      0.0000                 5.4941                 0.4555

                      7                      8                      9
                      A                      A                      A
 Frequencies --    120.5484               189.0109               196.0725
 Red. masses --      4.6206                 3.7592                 5.3476
 Frc consts  --      0.0396                 0.0791                 0.1211
 IR Inten    --      0.0000                 5.2821                 0.0361

                     10                     11                     12
                      A                      A                      A
 Frequencies --    246.2878               264.3288               269.5038
 Red. masses --      1.4664                 4.0801                 3.3790
 Frc consts  --      0.0524                 0.1680                 0.1446
 IR Inten    --      0.0000                 0.2951                 5.0235

                     13                     14                     15
                      A                      A                      A
 Frequencies --    275.3288               307.5984               412.5082
 Red. masses --      1.2193                 2.4770                 5.5180
 Frc consts  --      0.0545                 0.1381                 0.5532
 IR Inten    --      1.7339                 0.0000                 0.0434

                     16                     17                     18
                      A                      A                      A
 Frequencies --    421.4265               422.8666               426.6677
 Red. masses --      3.0505                 6.2567                 3.3476
 Frc consts  --      0.3192                 0.6592                 0.3591
 IR Inten    --      0.0000                 8.1597                 0.0565

                     19                     20                     21
                      A                      A                      A
 Frequencies --    450.9047               481.9389               511.1026
 Red. masses --      5.7726                 4.9486                 4.5192
 Frc consts  --      0.6915                 0.6772                 0.6956
 IR Inten    --      0.9184                 0.0000                 2.2042

                     22                     23                     24
                      A                      A                      A
 Frequencies --    520.3101               541.7370               557.6836
 Red. masses --      6.1803                 2.3783                 3.0681
 Frc consts  --      0.9858                 0.4112                 0.5622
 IR Inten    --     45.2188                31.1421                 0.0000

                     25                     26                     27
                      A                      A                      A
 Frequencies --    559.9348               626.2671               655.4211
 Red. masses --      5.8847                 5.7167                 6.9890
 Frc consts  --      1.0870                 1.3210                 1.7689
 IR Inten    --      9.5077                 3.5935                 0.3221

                     28                     29                     30
                      A                      A                      A
 Frequencies --    658.3494               717.5996               722.2948
 Red. masses --      7.2531                 4.0691                 4.0835
 Frc consts  --      1.8522                 1.2345                 1.2552
 IR Inten    --      0.7820                 0.0000                 0.1282

                     31                     32                     33
                      A                      A                      A
 Frequencies --    760.6094               818.0606               818.8575
 Red. masses --      5.3892                 5.8676                 1.2877
 Frc consts  --      1.8369                 2.3135                 0.5087
 IR Inten    --     27.5029                 1.4626                 0.0000

                     34                     35                     36
                      A                      A                      A
 Frequencies --    819.1764               844.5250               846.8686
 Red. masses --      1.2800                 1.6432                 1.6592
 Frc consts  --      0.5061                 0.6905                 0.7011
 IR Inten    --     14.8868                 0.0000               116.8642

                     37                     38                     39
                      A                      A                      A
 Frequencies --    870.9576               947.8214               948.5523
 Red. masses --      6.4771                 1.3242                 1.3278
 Frc consts  --      2.8948                 0.7009                 0.7039
 IR Inten    --      1.2681                 0.0000                 0.3140

                     40                     41                     42
                      A                      A                      A
 Frequencies --    968.4507               968.9189              1027.6816
 Red. masses --      1.3200                 1.3210                 2.9043
 Frc consts  --      0.7294                 0.7307                 1.8072
 IR Inten    --      0.0000                 0.0729                 0.1429

                     43                     44                     45
                      A                      A                      A
 Frequencies --   1028.6931              1065.1770              1066.8045
 Red. masses --      2.7542                 6.7901                 5.9533
 Frc consts  --      1.7172                 4.5391                 3.9919
 IR Inten    --      0.3021                61.0079                94.0721

                     46                     47                     48
                      A                      A                      A
 Frequencies --   1146.5645              1147.5858              1164.9248
 Red. masses --      1.3607                 1.3520                 3.5098
 Frc consts  --      1.0539                 1.0491                 2.8062
 IR Inten    --      5.4272                15.6525                 1.1780

                     49                     50                     51
                      A                      A                      A
 Frequencies --   1180.6510              1180.6552              1212.3103
 Red. masses --      1.2700                 1.2700                 1.2226
 Frc consts  --      1.0431                 1.0431                 1.0587
 IR Inten    --      0.0000                 2.0591                45.6934

                     52                     53                     54
                      A                      A                      A
 Frequencies --   1213.0414              1216.0078              1219.8631
 Red. masses --      1.3177                 1.3273                 1.2749
 Frc consts  --      1.1424                 1.1563                 1.1177
 IR Inten    --      1.3549               136.6458                 7.2031

                     55                     56                     57
                      A                      A                      A
 Frequencies --   1287.9852              1291.7314              1327.2735
 Red. masses --      4.0029                 4.4500                 2.7383
 Frc consts  --      3.9124                 4.3747                 2.8422
 IR Inten    --    739.2509                13.7618                77.5878

                     58                     59                     60
                      A                      A                      A
 Frequencies --   1334.8240              1343.5706              1344.5069
 Red. masses --      2.4496                 1.7644                 2.0080
 Frc consts  --      2.5716                 1.8766                 2.1386
 IR Inten    --     12.0809                51.2924                 1.3204

                     61                     62                     63
                      A                      A                      A
 Frequencies --   1356.7778              1456.4656              1457.5030
 Red. masses --      4.6006                 3.0016                 2.9678
 Frc consts  --      4.9898                 3.7515                 3.7145
 IR Inten    --     68.4657                 9.3723                 0.1858

                     64                     65                     66
                      A                      A                      A
 Frequencies --   1492.9637              1493.5692              1518.4292
 Red. masses --      1.1817                 1.1819                 1.0460
 Frc consts  --      1.5519                 1.5534                 1.4209
 IR Inten    --      0.0321                40.2367                 0.0010

                     67                     68                     69
                      A                      A                      A
 Frequencies --   1518.4312              1526.3495              1526.5207
 Red. masses --      1.0460                 1.0596                 1.0671
 Frc consts  --      1.4209                 1.4545                 1.4651
 IR Inten    --     16.2686               108.4486                 2.1314

                     70                     71                     72
                      A                      A                      A
 Frequencies --   1545.1853              1561.7778              1603.7303
 Red. masses --      2.2559                 2.6846                 6.3431
 Frc consts  --      3.1734                 3.8581                 9.6120
 IR Inten    --      1.2802               408.7511                28.9754

                     73                     74                     75
                      A                      A                      A
 Frequencies --   1605.5470              1654.5033              1663.3404
 Red. masses --      6.4094                 5.4648                 5.6491
 Frc consts  --      9.7345                 8.8137                 9.2086
 IR Inten    --      3.9921                 2.9251               177.2520

                     76                     77                     78
                      A                      A                      A
 Frequencies --   2302.2003              3020.4383              3020.6983
 Red. masses --     11.9974                 1.0343                 1.0344
 Frc consts  --     37.4648                 5.5598                 5.5611
 IR Inten    --      0.0246                97.7569                65.3768

                     79                     80                     81
                      A                      A                      A
 Frequencies --   3081.2701              3081.2857              3155.9170
 Red. masses --      1.1068                 1.1068                 1.0997
 Frc consts  --      6.1915                 6.1916                 6.4534
 IR Inten    --      0.0001                80.5171                52.9993

                     82                     83                     84
                      A                      A                      A
 Frequencies --   3155.9484              3197.3117              3197.3768
 Red. masses --      1.0997                 1.0882                 1.0882
 Frc consts  --      6.4534                 6.5543                 6.5546
 IR Inten    --      1.9678                23.7400                 0.0011

                     85                     86                     87
                      A                      A                      A
 Frequencies --   3198.1221              3198.2958              3214.2166
 Red. masses --      1.0891                 1.0891                 1.0949
 Frc consts  --      6.5629                 6.5638                 6.6647
 IR Inten    --      1.9890                 6.1998                 3.3005

                     88                     89                     90
                      A                      A                      A
 Frequencies --   3214.3466              3223.3886              3223.5241
 Red. masses --      1.0949                 1.0924                 1.0925
 Frc consts  --      6.6654                 6.6876                 6.6883
 IR Inten    --     15.8135                16.7667                11.8786

 - Thermochemistry -
 -------------------
 Temperature   298.150 Kelvin.  Pressure   1.00000 Atm.
 Atom     1 has atomic number  6 and mass  12.00000

 Molecular mass:   238.09938 amu.
 Principal axes and moments of inertia in atomic units:
                           1         2         3
     Eigenvalues --   777.01151********************
           X            1.00000   0.00000   0.00001
           Y            0.00000   1.00000   0.00000
           Z           -0.00001   0.00000   1.00000
 This molecule is an asymmetric top.
 Rotational symmetry number  1.
 Warning -- assumption of classical behavior for rotation
           may cause significant error
 Rotational temperatures (Kelvin)      0.11147     0.00515     0.00493
 Rotational constants (GHZ):           2.32267     0.10732     0.10272
 Zero-point vibrational energy     674605.6 (Joules/Mol)
                                  161.23462 (Kcal/Mol)
 Warning -- explicit consideration of  25 degrees of freedom as
           vibrations may cause significant error
 Vibrational temperatures:     26.17    40.19    42.17    94.29   133.26
          (Kelvin)            169.62   173.44   271.94   282.10   354.35
                              380.31   387.76   396.14   442.57   593.51
                              606.34   608.41   613.88   648.75   693.40
                              735.36   748.61   779.44   802.38   805.62
                              901.06   943.00   947.22  1032.47  1039.22
                             1094.35  1177.01  1178.15  1178.61  1215.08
                             1218.46  1253.11  1363.70  1364.76  1393.38
                             1394.06  1478.60  1480.06  1532.55  1534.89
                             1649.65  1651.12  1676.07  1698.69  1698.70
                             1744.24  1745.30  1749.56  1755.11  1853.12
                             1858.51  1909.65  1920.51  1933.10  1934.45
                             1952.10  2095.53  2097.02  2148.04  2148.91
                             2184.68  2184.68  2196.08  2196.32  2223.18
                             2247.05  2307.41  2310.02  2380.46  2393.18
                             3312.35  4345.74  4346.11  4433.26  4433.28
                             4540.66  4540.71  4600.22  4600.31  4601.38
                             4601.63  4624.54  4624.73  4637.74  4637.93

 Zero-point correction=                           0.256944 (Hartree/Particle)
 Thermal correction to Energy=                    0.273170
 Thermal correction to Enthalpy=                  0.274114
 Thermal correction to Gibbs Free Energy=         0.210634
 Sum of electronic and zero-point Energies=           -768.302983
 Sum of electronic and thermal Energies=              -768.286757
 Sum of electronic and thermal Enthalpies=            -768.285812
 Sum of electronic and thermal Free Energies=         -768.349293

                     E (Thermal)             CV                S
                      KCal/Mol        Cal/Mol-Kelvin    Cal/Mol-Kelvin
 Total                  171.417             61.683            133.605
 Electronic               0.000              0.000              0.000
 Translational            0.889              2.981             42.304
 Rotational               0.889              2.981             33.795
 Vibrational            169.639             55.722             57.506
 Vibration     1          0.593              1.986              6.823
 Vibration     2          0.593              1.984              5.971
 Vibration     3          0.593              1.984              5.875
 Vibration     4          0.597              1.971              4.283
 Vibration     5          0.602              1.954              3.604
 Vibration     6          0.608              1.934              3.135
 Vibration     7          0.609              1.932              3.092
 Vibration     8          0.633              1.855              2.238
 Vibration     9          0.636              1.845              2.170
 Vibration    10          0.661              1.769              1.757
 Vibration    11          0.671              1.738              1.633
 Vibration    12          0.674              1.729              1.599
 Vibration    13          0.677              1.719              1.563
 Vibration    14          0.697              1.659              1.375
 Vibration    15          0.776              1.443              0.918
 Vibration    16          0.784              1.424              0.887
 Vibration    17          0.785              1.421              0.882
 Vibration    18          0.788              1.412              0.870
 Vibration    19          0.810              1.359              0.793
 Vibration    20          0.838              1.290              0.705
 Vibration    21          0.866              1.225              0.631
 Vibration    22          0.875              1.205              0.609
 Vibration    23          0.897              1.158              0.562
 Vibration    24          0.913              1.123              0.528
 Vibration    25          0.916              1.118              0.524

 Optimization completed.
    -- Stationary point found.
 Normal termination of Gaussian 16 at Mon Sep 18 04:24:33 2023.
