 Gaussian 16, Revision B.01,
 Gaussian 16:  EM64L-G16RevB.01 20-Dec-2017

 ----------------------------------------------------------------
 # opt freq b3lyp/6-31+g(d) nosymm empiricaldispersion=gd3 volume
 ----------------------------------------------------------------

 -------------------
 Title Card Required
 -------------------
 Symbolic Z-matrix:
 Charge =  0 Multiplicity = 1

 SCF Done:  E(RB3LYP) =  -746.225339949     A.U. after   15 cycles
 Optimization completed.
    -- Stationary point found.
 Normal termination of Gaussian 16 at Fri Sep 22 18:21:25 2023.

 ---------------------------------------------------------------------
 #N Geom=AllCheck Guess=TCheck SCRF=Check GenChk RB3LYP/6-31+G(d) Freq
 ---------------------------------------------------------------------

 Structure from the checkpoint file:  "molecule_42.chk"
 -------------------
 Title Card Required
 -------------------
 Charge =  0 Multiplicity = 1

                          Input orientation:
 ---------------------------------------------------------------------
 Center     Atomic      Atomic             Coordinates (Angstroms)
 Number     Number       Type             X           Y           Z
 ---------------------------------------------------------------------
      1          6           0        0.072875    0.277685    0.250631
      2          6           0        0.101930    0.213773    1.634662
      3          6           0        1.330910    0.118822    2.329569
      4          6           0        2.521501    0.090970    1.578813
      5          6           0        2.498638    0.154975    0.185726
      6          6           0        1.270192    0.248896   -0.485461
      7          1           0       -0.866223    0.350643   -0.289308
      8          1           0       -0.826081    0.236408    2.198133
      9          1           0        3.473389    0.018340    2.096497
     10          1           0        3.435386    0.131038   -0.359098
     11          6           0        1.363164    0.053414    3.747148
     12          6           0        1.393809   -0.002970    4.968284
     13          8           0        1.130922    0.317181   -1.838796
     14          6           0        2.300491    0.293578   -2.651132
     15          1           0        2.953025    1.149604   -2.434031
     16          1           0        2.860623   -0.641010   -2.515080
     17          1           0        1.945646    0.358494   -3.680933
     18          6           0        1.429533   -0.065703    6.326027
     19          6           0        1.467009   -0.122333    7.545654
     20          6           0        1.477377   -0.186840    8.970781
     21          6           0        0.261875   -0.154460    9.685371
     22          6           0        0.299447   -0.218941   11.075478
     23          1           0       -0.677888   -0.080427    9.147115
     24          6           0        2.690242   -0.338665   10.917070
     25          6           0        1.538761   -0.313321   11.712142
     26          1           0       -0.622294   -0.195930   11.651022
     27          1           0        3.674338   -0.411538   11.377076
     28          1           0        1.617439   -0.366147   12.794134
     29          7           0        2.679992   -0.278154    9.583045
 ---------------------------------------------------------------------

 SCF Done:  E(RB3LYP) =  -746.225339949     A.U. after    1 cycles

 Alpha  occ. eigenvalues --  -19.20222 -14.34512 -10.27037 -10.25841 -10.25642
 Alpha  occ. eigenvalues --  -10.23543 -10.22497 -10.22250 -10.21555 -10.21487
 Alpha  occ. eigenvalues --  -10.21459 -10.21294 -10.21288 -10.21168 -10.20950
 Alpha  occ. eigenvalues --  -10.20892 -10.20662 -10.20432  -1.08524  -0.95601
 Alpha  occ. eigenvalues --   -0.87521  -0.81656  -0.81232  -0.79755  -0.77417
 Alpha  occ. eigenvalues --   -0.76731  -0.73800  -0.71232  -0.66311  -0.64281
 Alpha  occ. eigenvalues --   -0.63286  -0.62472  -0.59429  -0.55618  -0.54788
 Alpha  occ. eigenvalues --   -0.52504  -0.50161  -0.50024  -0.49377  -0.48535
 Alpha  occ. eigenvalues --   -0.46396  -0.44960  -0.44214  -0.43426  -0.41940
 Alpha  occ. eigenvalues --   -0.41699  -0.40667  -0.40089  -0.38651  -0.38124
 Alpha  occ. eigenvalues --   -0.36522  -0.34798  -0.34182  -0.33964  -0.30393
 Alpha  occ. eigenvalues --   -0.29371  -0.27192  -0.26973  -0.25871  -0.25038
 Alpha  occ. eigenvalues --   -0.21249
 Alpha virt. eigenvalues --   -0.07321  -0.03675  -0.02563  -0.02207  -0.02123
 Alpha virt. eigenvalues --   -0.00229   0.00164   0.01433   0.01963   0.02357
 Alpha virt. eigenvalues --    0.03128   0.03316   0.03587   0.04418   0.04663

 Mulliken charges:
               1
     1  C    0.040065
     2  C   -0.548991
     3  C   -0.019108
     4  C   -0.508649
     5  C    0.518320
     6  C   -0.092517
     7  H    0.195988
     8  H    0.198963
     9  H    0.200717
    10  H    0.181788
    11  C   -1.189110
    12  C    1.218840
    13  O   -0.374026
    14  C   -0.340296
    15  H    0.206585
    16  H    0.206580
    17  H    0.212338
    18  C    0.854122
    19  C   -1.062926
    20  C    0.111957
    21  C   -0.228745
    22  C   -0.227903
    23  H    0.203037
    24  C   -0.147683
    25  C   -0.019185
    26  H    0.191465
    27  H    0.180554
    28  H    0.189369
    29  N   -0.151548
 Sum of Mulliken charges =   0.00000

 Dipole moment (field-independent basis, Debye):
    X=             -0.6763    Y=              0.0971    Z=             -1.3105  Tot=              1.4779
 Quadrupole moment (field-independent basis, Debye-Ang):
   XX=            -99.2717   YY=           -109.8197   ZZ=            -67.9903
   XY=              0.2821   XZ=            -22.8941   YZ=             -1.0607

  Exact polarizability: 169.527  -3.498 101.307  -2.906 -19.469 536.671
 Approx polarizability: 282.223  -7.388 147.890   5.847 -27.554 752.697

                      1                      2                      3
                      A                      A                      A
 Frequencies --     13.5931                24.1627                26.2585
 Red. masses --      3.8806                 5.7939                 6.1454
 Frc consts  --      0.0004                 0.0020                 0.0025
 IR Inten    --      2.8024                 1.7162                 1.0826

                      4                      5                      6
                      A                      A                      A
 Frequencies --     66.6795                74.4891               104.2130
 Red. masses --      4.6716                 5.9299                 4.1976
 Frc consts  --      0.0122                 0.0194                 0.0269
 IR Inten    --      0.0219                 0.4586                 4.4301

                      7                      8                      9
                      A                      A                      A
 Frequencies --    161.4130               199.5051               210.3653
 Red. masses --      5.4044                 5.9217                 7.7449
 Frc consts  --      0.0830                 0.1389                 0.2019
 IR Inten    --      0.7225                 0.0999                 1.5110

                     10                     11                     12
                      A                      A                      A
 Frequencies --    237.0671               273.0135               280.5705
 Red. masses --      2.2319                 3.9653                 1.6656
 Frc consts  --      0.0739                 0.1741                 0.0773
 IR Inten    --      0.6448                 2.8116                 1.0765

                     13                     14                     15
                      A                      A                      A
 Frequencies --    351.2232               412.8354               421.4176
 Red. masses --      5.4380                 3.5981                 3.0510
 Frc consts  --      0.3952                 0.3613                 0.3192
 IR Inten    --      1.0816                 3.7763                 0.0052

                     16                     17                     18
                      A                      A                      A
 Frequencies --    422.4473               465.5099               469.8955
 Red. masses --      6.9034                 5.5465                 7.7996
 Frc consts  --      0.7259                 0.7081                 1.0147
 IR Inten    --      4.8336                 2.8335                17.7914

                     19                     20                     21
                      A                      A                      A
 Frequencies --    505.1164               533.5696               536.9139
 Red. masses --      6.0439                 2.6853                 5.8814
 Frc consts  --      0.9086                 0.4504                 0.9989
 IR Inten    --     11.1786                 4.0300                 9.8612

                     22                     23                     24
                      A                      A                      A
 Frequencies --    565.3004               628.9028               640.2416
 Red. masses --      3.5399                 7.3911                 6.7899
 Frc consts  --      0.6665                 1.7224                 1.6398
 IR Inten    --     13.6457                 3.5453                 1.4872

                     25                     26                     27
                      A                      A                      A
 Frequencies --    655.0868               686.3672               722.7416
 Red. masses --      7.0150                10.5875                 3.9249
 Frc consts  --      1.7737                 2.9387                 1.2079
 IR Inten    --      3.5289                 0.0849                 0.0487

                     28                     29                     30
                      A                      A                      A
 Frequencies --    748.6973               761.9002               788.4476
 Red. masses --      1.8734                 6.0886                 2.2356
 Frc consts  --      0.6187                 2.0824                 0.8188
 IR Inten    --     16.8677                24.6496                32.6219

                     31                     32                     33
                      A                      A                      A
 Frequencies --    820.1103               828.0160               841.5741
 Red. masses --      1.2900                 6.1059                 2.1697
 Frc consts  --      0.5112                 2.4665                 0.9054
 IR Inten    --     10.1842                 0.8984                54.2250

                     34                     35                     36
                      A                      A                      A
 Frequencies --    858.1513               904.2808               955.0535
 Red. masses --      3.6644                 1.3552                 1.3332
 Frc consts  --      1.5900                 0.6529                 0.7165
 IR Inten    --     11.6729                 1.0483                 0.1665

                     37                     38                     39
                      A                      A                      A
 Frequencies --    972.1949               979.2694               998.1796
 Red. masses --      1.3246                 1.4119                 7.0943
 Frc consts  --      0.7377                 0.7977                 4.1646
 IR Inten    --      0.0397                 0.3973                 8.2852

                     40                     41                     42
                      A                      A                      A
 Frequencies --   1007.7067              1016.7285              1032.0350
 Red. masses --      1.3133                 6.7636                 2.9943
 Frc consts  --      0.7857                 4.1195                 1.8790
 IR Inten    --      0.0329                 2.4478                 1.8292

                     43                     44                     45
                      A                      A                      A
 Frequencies --   1064.3728              1072.9203              1122.3735
 Red. masses --      5.3437                 2.2859                 1.6059
 Frc consts  --      3.5668                 1.5504                 1.1919
 IR Inten    --     90.3804                 9.5969                 5.3088

                     46                     47                     48
                      A                      A                      A
 Frequencies --   1148.4184              1180.4420              1189.7392
 Red. masses --      1.3567                 1.2695                 1.1334
 Frc consts  --      1.0542                 1.0422                 0.9452
 IR Inten    --     10.5177                 1.0164                13.7338

                     49                     50                     51
                      A                      A                      A
 Frequencies --   1212.2684              1216.2190              1246.6081
 Red. masses --      1.2270                 1.3516                 3.6992
 Frc consts  --      1.0624                 1.1779                 3.3870
 IR Inten    --     42.9729                74.4263                56.6198

                     52                     53                     54
                      A                      A                      A
 Frequencies --   1294.0119              1295.3579              1323.7770
 Red. masses --      4.6560                 4.4521                 1.7408
 Frc consts  --      4.5934                 4.4014                 1.7974
 IR Inten    --    157.1237               258.6479                 0.3747

                     55                     56                     57
                      A                      A                      A
 Frequencies --   1333.6212              1345.1453              1391.8025
 Red. masses --      2.2841                 2.0885                 3.8876
 Frc consts  --      2.3935                 2.2265                 4.4370
 IR Inten    --     62.6727                60.1068                46.7231

                     58                     59                     60
                      A                      A                      A
 Frequencies --   1459.0217              1463.8523              1493.3877
 Red. masses --      2.9726                 2.0611                 1.2017
 Frc consts  --      3.7283                 2.6022                 1.5790
 IR Inten    --      1.2671                61.5063                47.1843

                     61                     62                     63
                      A                      A                      A
 Frequencies --   1504.0199              1519.3261              1526.0476
 Red. masses --      2.3331                 1.0458                 1.0613
 Frc consts  --      3.1095                 1.4223                 1.4563
 IR Inten    --    168.0323                 8.5809                50.3977

                     64                     65                     66
                      A                      A                      A
 Frequencies --   1554.7613              1601.7507              1606.3471
 Red. masses --      2.5824                 6.2905                 4.9673
 Frc consts  --      3.6779                 9.5087                 7.5518
 IR Inten    --    107.8788                19.6611                26.5069

                     67                     68                     69
                      A                      A                      A
 Frequencies --   1628.7760              1655.1282              2238.3846
 Red. masses --      5.1723                 5.4665                11.9974
 Frc consts  --      8.0846                 8.8231                35.4166
 IR Inten    --    160.2124               228.6487                 0.2892

                     70                     71                     72
                      A                      A                      A
 Frequencies --   2312.3271              3024.8548              3087.5349
 Red. masses --     11.9965                 1.0342                 1.1071
 Frc consts  --     37.7924                 5.5751                 6.2180
 IR Inten    --    291.0435                84.1555                36.9448

                     73                     74                     75
                      A                      A                      A
 Frequencies --   3159.9723              3170.5995              3190.2833
 Red. masses --      1.1001                 1.0892                 1.0886
 Frc consts  --      6.4723                 6.4512                 6.5281
 IR Inten    --     26.3085                31.4007                 8.8278

                     76                     77                     78
                      A                      A                      A
 Frequencies --   3200.6035              3202.8497              3209.1406
 Red. masses --      1.0883                 1.0894                 1.0935
 Frc consts  --      6.5682                 6.5846                 6.6349
 IR Inten    --      6.8626                 4.1977                25.0519

                     79                     80                     81
                      A                      A                      A
 Frequencies --   3216.8541              3216.9222              3226.7190
 Red. masses --      1.0968                 1.0955                 1.0927
 Frc consts  --      6.6870                 6.6793                 6.7030
 IR Inten    --      9.5986                 9.7788                14.4598

 - Thermochemistry -
 -------------------
 Temperature   298.150 Kelvin.  Pressure   1.00000 Atm.
 Atom     1 has atomic number  6 and mass  12.00000

 Molecular mass:   233.08406 amu.
 Principal axes and moments of inertia in atomic units:
                           1         2         3
     Eigenvalues --   694.25790********************
           X           -0.00080   0.99864   0.05218
           Y           -0.04487  -0.05216   0.99763
           Z            0.99899  -0.00154   0.04485
 This molecule is an asymmetric top.
 Rotational symmetry number  1.
 Warning -- assumption of classical behavior for rotation
           may cause significant error
 Rotational temperatures (Kelvin)      0.12476     0.00449     0.00434
 Rotational constants (GHZ):           2.59953     0.09364     0.09044
 Zero-point vibrational energy     586814.9 (Joules/Mol)
                                  140.25212 (Kcal/Mol)
 Warning -- explicit consideration of  22 degrees of freedom as
           vibrations may cause significant error
 Vibrational temperatures:     19.56    34.76    37.78    95.94   107.17
          (Kelvin)            149.94   232.24   287.04   302.67   341.09
                              392.81   403.68   505.33   593.98   606.33
                              607.81   669.76   676.07   726.75   767.69
                              772.50   813.34   904.85   921.16   942.52
                              987.53  1039.86  1077.21  1096.20  1134.40
                             1179.96  1191.33  1210.84  1234.69  1301.06
                             1374.11  1398.77  1408.95  1436.16  1449.87
                             1462.85  1484.87  1531.40  1543.69  1614.85
                             1652.32  1698.39  1711.77  1744.18  1749.87
                             1793.59  1861.79  1863.73  1904.62  1918.78
                             1935.36  2002.49  2099.21  2106.16  2148.65
                             2163.95  2185.97  2195.64  2236.95  2304.56
                             2311.18  2343.45  2381.36  3220.54  3326.92
                             4352.09  4442.27  4546.50  4561.79  4590.11
                             4604.95  4608.19  4617.24  4628.34  4628.43
                             4642.53

 Zero-point correction=                           0.223506 (Hartree/Particle)
 Thermal correction to Energy=                    0.238789
 Thermal correction to Enthalpy=                  0.239734
 Thermal correction to Gibbs Free Energy=         0.177214
 Sum of electronic and zero-point Energies=           -746.001834
 Sum of electronic and thermal Energies=              -745.986551
 Sum of electronic and thermal Enthalpies=            -745.985606
 Sum of electronic and thermal Free Energies=         -746.048126

                     E (Thermal)             CV                S
                      KCal/Mol        Cal/Mol-Kelvin    Cal/Mol-Kelvin
 Total                  149.843             57.567            131.583
 Electronic               0.000              0.000              0.000
 Translational            0.889              2.981             42.240
 Rotational               0.889              2.981             33.945
 Vibrational            148.065             51.605             55.398
 Vibration     1          0.593              1.986              7.401
 Vibration     2          0.593              1.985              6.259
 Vibration     3          0.593              1.985              6.094
 Vibration     4          0.598              1.970              4.249
 Vibration     5          0.599              1.966              4.031
 Vibration     6          0.605              1.946              3.374
 Vibration     7          0.622              1.890              2.533
 Vibration     8          0.638              1.841              2.138
 Vibration     9          0.643              1.825              2.041
 Vibration    10          0.656              1.784              1.825
 Vibration    11          0.676              1.723              1.577
 Vibration    12          0.680              1.710              1.530
 Vibration    13          0.728              1.573              1.161
 Vibration    14          0.777              1.442              0.917
 Vibration    15          0.784              1.424              0.887
 Vibration    16          0.785              1.421              0.884
 Vibration    17          0.823              1.327              0.750
 Vibration    18          0.827              1.317              0.738
 Vibration    19          0.860              1.239              0.645
 Vibration    20          0.889              1.176              0.579
 Vibration    21          0.892              1.168              0.572
 Vibration    22          0.921              1.106              0.513

 Optimization completed.
    -- Stationary point found.
 Normal termination of Gaussian 16 at Fri Sep 22 18:30:45 2023.
