 Gaussian 16, Revision B.01,
 Gaussian 16:  EM64L-G16RevB.01 20-Dec-2017

 ---------------------------------------------------------
 # opt freq b3lyp/6-31+g(d) empiricaldispersion=gd3 volume
 ---------------------------------------------------------

 -------------------
 Title Card Required
 -------------------
 Symbolic Z-matrix:
 Charge =  0 Multiplicity = 1

 SCF Done:  E(RB3LYP) =  -1113.62394039     A.U. after   15 cycles
 SCF Done:  E(RB3LYP) =  -1113.62620794     A.U. after   13 cycles
 SCF Done:  E(RB3LYP) =  -1113.62649498     A.U. after   12 cycles
 SCF Done:  E(RB3LYP) =  -1113.62654103     A.U. after   11 cycles
 SCF Done:  E(RB3LYP) =  -1113.62652839     A.U. after   12 cycles
 SCF Done:  E(RB3LYP) =  -1113.62654602     A.U. after   12 cycles
 SCF Done:  E(RB3LYP) =  -1113.62654685     A.U. after    9 cycles
 Optimization completed.
    -- Stationary point found.
 Normal termination of Gaussian 16 at Mon Sep 18 04:09:41 2023.

 ---------------------------------------------------------------------
 #N Geom=AllCheck Guess=TCheck SCRF=Check GenChk RB3LYP/6-31+G(d) Freq
 ---------------------------------------------------------------------

 Structure from the checkpoint file:  "molecule_28.chk"
 -------------------
 Title Card Required
 -------------------
 Charge =  0 Multiplicity = 1

                         Standard orientation:
 ---------------------------------------------------------------------
 Center     Atomic      Atomic             Coordinates (Angstroms)
 Number     Number       Type             X           Y           Z
 ---------------------------------------------------------------------
      1          6           0        4.092657    1.406598    0.000076
      2          6           0        2.706830    1.364495    0.000076
      3          6           0        2.018263    0.129435    0.000032
      4          6           0        2.778289   -1.054102   -0.000013
      5          6           0        4.173522   -1.019675   -0.000015
      6          6           0        4.837975    0.215298    0.000030
      7          1           0        4.626211    2.352240    0.000111
      8          1           0        2.137603    2.289417    0.000113
      9          1           0        2.267591   -2.012720   -0.000048
     10          1           0        4.724373   -1.953310   -0.000054
     11          6           0        0.595304    0.086857    0.000036
     12          6           0       -0.622057    0.054396    0.000035
     13          6           0       -2.045283    0.016085    0.000004
     14          6           0       -2.798777    1.208589   -0.000039
     15          6           0       -2.733768   -1.215078    0.000018
     16          6           0       -4.191256    1.174533   -0.000067
     17          1           0       -2.282746    2.163983   -0.000051
     18          6           0       -4.126052   -1.255752   -0.000009
     19          1           0       -2.167250   -2.141442    0.000052
     20          6           0       -4.846059   -0.059052   -0.000052
     21          1           0       -4.766162    2.095014   -0.000100
     22          1           0       -4.650813   -2.205723    0.000002
     23          8           0        6.193236    0.366918    0.000026
     24          6           0        7.012036   -0.797476    0.000060
     25          1           0        6.838669   -1.406515    0.897346
     26          1           0        6.838748   -1.406512   -0.897244
     27          1           0        8.041335   -0.435018    0.000104
     28         17           0       -6.603717   -0.106215   -0.000087
 ---------------------------------------------------------------------

 SCF Done:  E(RB3LYP) =  -1113.62654685     A.U. after    1 cycles

 The electronic state is 1-A.
 Alpha  occ. eigenvalues -- -101.55783 -19.19985 -10.26736 -10.26342 -10.25511
 Alpha  occ. eigenvalues --  -10.23133 -10.22205 -10.21519 -10.21514 -10.21454
 Alpha  occ. eigenvalues --  -10.21448 -10.21186 -10.21007 -10.20698 -10.20225
 Alpha  occ. eigenvalues --  -10.20067 -10.19740  -9.47297  -7.23700  -7.22735
 Alpha  occ. eigenvalues --   -7.22703  -1.08277  -0.90034  -0.87260  -0.85260
 Alpha  occ. eigenvalues --   -0.79690  -0.77258  -0.76986  -0.76517  -0.73339
 Alpha  occ. eigenvalues --   -0.70438  -0.63408  -0.63209  -0.62612  -0.60961
 Alpha  occ. eigenvalues --   -0.56024  -0.54869  -0.52362  -0.49942  -0.48662
 Alpha  occ. eigenvalues --   -0.48404  -0.48363  -0.46237  -0.45261  -0.44399
 Alpha  occ. eigenvalues --   -0.43999  -0.43218  -0.40802  -0.40441  -0.39772
 Alpha  occ. eigenvalues --   -0.38691  -0.37900  -0.37481  -0.36272  -0.34513
 Alpha  occ. eigenvalues --   -0.34386  -0.31981  -0.30229  -0.27848  -0.27427
 Alpha  occ. eigenvalues --   -0.26981  -0.25926  -0.21130
 Alpha virt. eigenvalues --   -0.05883  -0.02873  -0.02336  -0.00679  -0.00435
 Alpha virt. eigenvalues --    0.00086   0.01337   0.01604   0.01720   0.02363
 Alpha virt. eigenvalues --    0.03453   0.03648   0.03926   0.04046   0.04799

 Mulliken charges:
               1
     1  C   -0.188847
     2  C   -0.400601
     3  C    0.236121
     4  C   -1.004529
     5  C    0.702148
     6  C   -0.053696
     7  H    0.195103
     8  H    0.195504
     9  H    0.194219
    10  H    0.179926
    11  C    0.012094
    12  C   -0.043778
    13  C   -0.070553
    14  C   -0.014655
    15  C   -0.271147
    16  C   -0.523697
    17  H    0.198362
    18  C   -0.397126
    19  H    0.198341
    20  C    0.296025
    21  H    0.202296
    22  H    0.201919
    23  O   -0.374267
    24  C   -0.325888
    25  H    0.205829
    26  H    0.205829
    27  H    0.211403
    28  Cl   0.233668
 Sum of Mulliken charges =   0.00000

 Dipole moment (field-independent basis, Debye):
    X=              3.4608    Y=             -1.2188    Z=              0.0001  Tot=              3.6691
 Quadrupole moment (field-independent basis, Debye-Ang):
   XX=            -98.0745   YY=            -94.4761   ZZ=           -112.2816
   XY=             -9.5445   XZ=              0.0003   YZ=              0.0000

  Exact polarizability: 428.729  -1.317 171.375   0.003   0.000 100.325
 Approx polarizability: 568.999   4.157 291.256   0.003   0.001 148.685

                      1                      2                      3
                      A                      A                      A
 Frequencies --     20.4220                28.0931                29.7385
 Red. masses --      3.5669                 7.6842                 6.7837
 Frc consts  --      0.0009                 0.0036                 0.0035
 IR Inten    --      0.3557                 0.0604                 0.1550

                      4                      5                      6
                      A                      A                      A
 Frequencies --     69.8389               108.3375               118.4703
 Red. masses --      4.8051                 4.6378                 6.3647
 Frc consts  --      0.0138                 0.0321                 0.0526
 IR Inten    --      1.3126                 1.6002                 0.3227

                      7                      8                      9
                      A                      A                      A
 Frequencies --    176.8067               195.3916               247.2446
 Red. masses --      5.6613                 7.7804                 1.8421
 Frc consts  --      0.1043                 0.1750                 0.0663
 IR Inten    --      3.1201                 0.2619                 0.0274

                     10                     11                     12
                      A                      A                      A
 Frequencies --    263.3063               291.7947               296.5268
 Red. masses --      3.9353                 2.0226                 6.2450
 Frc consts  --      0.1608                 0.1015                 0.3235
 IR Inten    --      1.7673                 1.5970                 0.9701

                     13                     14                     15
                      A                      A                      A
 Frequencies --    390.9849               402.7429               416.2645
 Red. masses --      6.3291                 9.5170                 2.9953
 Frc consts  --      0.5701                 0.9095                 0.3058
 IR Inten    --      1.5180                22.2182                 0.0010

                     16                     17                     18
                      A                      A                      A
 Frequencies --    423.2883               465.7954               472.5282
 Red. masses --      3.0584                 6.1670                 4.8511
 Frc consts  --      0.3229                 0.7883                 0.6382
 IR Inten    --      0.0620                15.5917                 0.5524

                     19                     20                     21
                      A                      A                      A
 Frequencies --    502.7096               535.9771               548.8230
 Red. masses --      5.1394                 2.7100                 7.7133
 Frc consts  --      0.7652                 0.4587                 1.3688
 IR Inten    --      7.5501                29.4275                 0.0909

                     22                     23                     24
                      A                      A                      A
 Frequencies --    558.3141               578.3313               648.8004
 Red. masses --      3.2923                 6.0859                 7.2650
 Frc consts  --      0.6046                 1.1993                 1.8018
 IR Inten    --      1.7801                 4.5136                 0.6275

                     25                     26                     27
                      A                      A                      A
 Frequencies --    656.2786               707.7402               714.1825
 Red. masses --      7.2508                 6.5475                 3.9702
 Frc consts  --      1.8400                 1.9323                 1.1931
 IR Inten    --      0.4314                30.9737                 0.6268

                     28                     29                     30
                      A                      A                      A
 Frequencies --    721.0489               800.4823               819.8614
 Red. masses --      4.0444                 5.8735                 1.2818
 Frc consts  --      1.2389                 2.2174                 0.5076
 IR Inten    --      0.3023                 0.9602                 6.5099

                     31                     32                     33
                      A                      A                      A
 Frequencies --    832.8030               838.8381               846.9729
 Red. masses --      1.2472                 1.5596                 1.6584
 Frc consts  --      0.5096                 0.6466                 0.7010
 IR Inten    --      0.0141                35.6177                78.5150

                     34                     35                     36
                      A                      A                      A
 Frequencies --    866.7131               950.4704               963.6878
 Red. masses --      6.3555                 1.3257                 1.3122
 Frc consts  --      2.8129                 0.7056                 0.7180
 IR Inten    --      4.6438                 0.1577                 0.0192

                     37                     38                     39
                      A                      A                      A
 Frequencies --    970.1819               971.7509              1028.0876
 Red. masses --      1.3217                 1.3483                 2.8537
 Frc consts  --      0.7330                 0.7501                 1.7771
 IR Inten    --      0.0401                 0.0000                 1.1210

                     40                     41                     42
                      A                      A                      A
 Frequencies --   1029.7727              1064.2718              1104.7928
 Red. masses --      3.8203                 6.4373                 3.2841
 Frc consts  --      2.3869                 4.2960                 2.3617
 IR Inten    --     27.9500                75.7119                66.5628

                     43                     44                     45
                      A                      A                      A
 Frequencies --   1143.3043              1147.9690              1164.1591
 Red. masses --      1.3932                 1.3540                 3.3952
 Frc consts  --      1.0730                 1.0513                 2.7111
 IR Inten    --      4.0471                10.8755                53.3513

                     46                     47                     48
                      A                      A                      A
 Frequencies --   1180.4728              1212.9506              1217.6050
 Red. masses --      1.2697                 1.2806                 1.2314
 Frc consts  --      1.0424                 1.1101                 1.0757
 IR Inten    --      1.0270                 8.7476                52.6087

                     49                     50                     51
                      A                      A                      A
 Frequencies --   1219.7393              1292.6270              1316.1321
 Red. masses --      1.2045                 4.1832                 8.1466
 Frc consts  --      1.0558                 4.1181                 8.3143
 IR Inten    --     21.4384               378.4091                 1.4805

                     52                     53                     54
                      A                      A                      A
 Frequencies --   1331.6877              1333.9327              1344.4470
 Red. masses --      2.1758                 1.4216                 1.8859
 Frc consts  --      2.2734                 1.4903                 2.0084
 IR Inten    --     42.8532                 9.4177                37.0265

                     55                     56                     57
                      A                      A                      A
 Frequencies --   1355.1102              1438.5906              1458.2105
 Red. masses --      4.3684                 2.7401                 2.9974
 Frc consts  --      4.7263                 3.3411                 3.7552
 IR Inten    --     21.8303                 4.1274                 4.6344

                     58                     59                     60
                      A                      A                      A
 Frequencies --   1493.3929              1518.9714              1526.1018
 Red. masses --      1.1830                 1.0459                 1.0855
 Frc consts  --      1.5544                 1.4218                 1.4896
 IR Inten    --     21.0264                 8.4154                40.4391

                     61                     62                     63
                      A                      A                      A
 Frequencies --   1529.5712              1556.5696              1596.7686
 Red. masses --      2.1421                 2.6008                 6.5860
 Frc consts  --      2.9528                 3.7127                 9.8936
 IR Inten    --     54.1140               267.8021                 0.2486

                     64                     65                     66
                      A                      A                      A
 Frequencies --   1604.4463              1639.3729              1660.1865
 Red. masses --      6.3588                 5.4159                 5.5919
 Frc consts  --      9.6444                 8.5758                 9.0808
 IR Inten    --     17.3318                15.7058               125.5493

                     67                     68                     69
                      A                      A                      A
 Frequencies --   2303.5640              3022.9892              3084.7833
 Red. masses --     11.9973                 1.0343                 1.1070
 Frc consts  --     37.5090                 5.5688                 6.2064
 IR Inten    --     55.1200                79.3391                38.4137

                     70                     71                     72
                      A                      A                      A
 Frequencies --   3158.3868              3198.6637              3199.5383
 Red. masses --      1.0999                 1.0883                 1.0893
 Frc consts  --      6.4647                 6.5606                 6.5699
 IR Inten    --     25.7046                 9.8976                 3.9540

                     73                     74                     75
                      A                      A                      A
 Frequencies --   3202.4628              3203.0635              3215.5966
 Red. masses --      1.0887                 1.0887                 1.0950
 Frc consts  --      6.5788                 6.5812                 6.6708
 IR Inten    --      6.7536                 2.4932                 8.3482

                     76                     77                     78
                      A                      A                      A
 Frequencies --   3219.4208              3221.0789              3225.1308
 Red. masses --      1.0946                 1.0953                 1.0925
 Frc consts  --      6.6842                 6.6958                 6.6950
 IR Inten    --      8.6013                 1.9135                13.4794

 - Thermochemistry -
 -------------------
 Temperature   298.150 Kelvin.  Pressure   1.00000 Atm.
 Atom     1 has atomic number  6 and mass  12.00000

 Molecular mass:   242.04984 amu.
 Principal axes and moments of inertia in atomic units:
                           1         2         3
     Eigenvalues --   702.97978********************
           X            0.99999  -0.00463  -0.00001
           Y            0.00463   0.99999  -0.00001
           Z            0.00001   0.00001   1.00000
 This molecule is an asymmetric top.
 Rotational symmetry number  1.
 Warning -- assumption of classical behavior for rotation
           may cause significant error
 Rotational temperatures (Kelvin)      0.12321     0.00500     0.00480
 Rotational constants (GHZ):           2.56727     0.10410     0.10010
 Zero-point vibrational energy     563533.6 (Joules/Mol)
                                  134.68777 (Kcal/Mol)
 Warning -- explicit consideration of  23 degrees of freedom as
           vibrations may cause significant error
 Vibrational temperatures:     29.38    40.42    42.79   100.48   155.87
          (Kelvin)            170.45   254.39   281.12   355.73   378.84
                              419.83   426.64   562.54   579.46   598.91
                              609.02   670.18   679.86   723.29   771.15
                              789.63   803.29   832.09   933.48   944.24
                             1018.28  1027.55  1037.43  1151.72  1179.60
                             1198.22  1206.90  1218.61  1247.01  1367.51
                             1386.53  1395.88  1398.13  1479.19  1481.61
                             1531.25  1589.55  1644.96  1651.67  1674.97
                             1698.44  1745.17  1751.86  1754.93  1859.80
                             1893.62  1916.00  1919.23  1934.36  1949.70
                             2069.81  2098.04  2148.66  2185.46  2195.72
                             2200.71  2239.56  2297.39  2308.44  2358.69
                             2388.64  3314.31  4349.41  4438.32  4544.21
                             4602.16  4603.42  4607.63  4608.49  4626.53
                             4632.03  4634.41  4640.24

 Zero-point correction=                           0.214639 (Hartree/Particle)
 Thermal correction to Energy=                    0.229515
 Thermal correction to Enthalpy=                  0.230460
 Thermal correction to Gibbs Free Energy=         0.169685
 Sum of electronic and zero-point Energies=          -1113.411908
 Sum of electronic and thermal Energies=             -1113.397031
 Sum of electronic and thermal Enthalpies=           -1113.396087
 Sum of electronic and thermal Free Energies=        -1113.456862

                     E (Thermal)             CV                S
                      KCal/Mol        Cal/Mol-Kelvin    Cal/Mol-Kelvin
 Total                  144.023             56.387            127.910
 Electronic               0.000              0.000              0.000
 Translational            0.889              2.981             42.353
 Rotational               0.889              2.981             33.751
 Vibrational            142.246             50.425             51.806
 Vibration     1          0.593              1.986              6.593
 Vibration     2          0.593              1.984              5.960
 Vibration     3          0.594              1.984              5.847
 Vibration     4          0.598              1.969              4.158
 Vibration     5          0.606              1.943              3.298
 Vibration     6          0.609              1.934              3.125
 Vibration     7          0.628              1.871              2.362
 Vibration     8          0.636              1.846              2.176
 Vibration     9          0.661              1.767              1.750
 Vibration    10          0.670              1.740              1.640
 Vibration    11          0.687              1.689              1.464
 Vibration    12          0.690              1.680              1.436
 Vibration    13          0.759              1.489              0.996
 Vibration    14          0.768              1.464              0.953
 Vibration    15          0.779              1.435              0.905
 Vibration    16          0.785              1.420              0.881
 Vibration    17          0.823              1.326              0.749
 Vibration    18          0.829              1.311              0.731
 Vibration    19          0.858              1.244              0.651
 Vibration    20          0.891              1.170              0.574
 Vibration    21          0.904              1.142              0.547
 Vibration    22          0.914              1.122              0.527
 Vibration    23          0.935              1.078              0.488

 Optimization completed.
    -- Stationary point found.
 Normal termination of Gaussian 16 at Mon Sep 18 04:14:21 2023.
