 Gaussian 16, Revision B.01,
 Gaussian 16:  EM64L-G16RevB.01 20-Dec-2017

 ----------------------------------------------------------------------
 # opt freq b3lyp/6-31+g(d) geom=connectivity empiricaldispersion=gd3 v
 olume
 ----------------------------------------------------------------------

 -------------
 ML molecule89
 -------------
 Symbolic Z-matrix:
 Charge =  0 Multiplicity = 1

 SCF Done:  E(RB3LYP) =  -730.423917287     A.U. after   17 cycles
 SCF Done:  E(RB3LYP) =  -730.454856881     A.U. after   17 cycles
 SCF Done:  E(RB3LYP) =  -730.483069078     A.U. after   16 cycles
 SCF Done:  E(RB3LYP) =  -730.503567482     A.U. after   15 cycles
 SCF Done:  E(RB3LYP) =  -730.504071540     A.U. after   17 cycles
 SCF Done:  E(RB3LYP) =  -730.518767609     A.U. after   16 cycles
 SCF Done:  E(RB3LYP) =  -730.522949386     A.U. after   15 cycles
 SCF Done:  E(RB3LYP) =  -730.525652699     A.U. after   16 cycles
 SCF Done:  E(RB3LYP) =  -730.526456156     A.U. after   16 cycles
 SCF Done:  E(RB3LYP) =  -730.530126816     A.U. after   16 cycles
 SCF Done:  E(RB3LYP) =  -730.530870704     A.U. after   13 cycles
 SCF Done:  E(RB3LYP) =  -730.530873387     A.U. after   13 cycles
 SCF Done:  E(RB3LYP) =  -730.530874002     A.U. after   11 cycles
 SCF Done:  E(RB3LYP) =  -730.530872156     A.U. after   13 cycles
 SCF Done:  E(RB3LYP) =  -730.530873773     A.U. after   13 cycles
 SCF Done:  E(RB3LYP) =  -730.530874293     A.U. after   10 cycles
 SCF Done:  E(RB3LYP) =  -730.530874073     A.U. after   11 cycles
 SCF Done:  E(RB3LYP) =  -730.530874161     A.U. after   10 cycles
 SCF Done:  E(RB3LYP) =  -730.530874188     A.U. after    8 cycles
 Optimization completed.
    -- Stationary point found.
 Normal termination of Gaussian 16 at Fri Sep 15 05:57:43 2023.

 ---------------------------------------------------------------------
 #N Geom=AllCheck Guess=TCheck SCRF=Check GenChk RB3LYP/6-31+G(d) Freq
 ---------------------------------------------------------------------

 Structure from the checkpoint file:  "molecule_89.chk"
 -------------
 ML molecule89
 -------------
 Charge =  0 Multiplicity = 1

                         Standard orientation:
 ---------------------------------------------------------------------
 Center     Atomic      Atomic             Coordinates (Angstroms)
 Number     Number       Type             X           Y           Z
 ---------------------------------------------------------------------
      1          6           0       -3.051340   -0.089605    0.003063
      2          6           0       -1.921890   -0.921710    0.043716
      3          6           0       -0.630155   -0.393682    0.042649
      4          6           0       -0.461109    0.995226    0.000105
      5          6           0       -1.576835    1.846065   -0.040563
      6          6           0       -2.853259    1.304904   -0.038877
      7          1           0       -2.034883   -2.001022    0.077605
      8          1           0       -1.414288    2.919139   -0.072741
      9          1           0       -3.725803    1.949928   -0.070438
     10          8           0        0.762346    1.615581    0.000179
     11          6           0        1.920865    0.841759   -0.000765
     12          6           0        2.473807    0.430474   -1.213068
     13          6           0        2.546904    0.546341    1.207113
     14          6           0        3.668531   -0.290976   -1.206648
     15          6           0        3.743508   -0.176349    1.196404
     16          1           0        2.100361    0.886401    2.136788
     17          6           0        4.321490   -0.609550   -0.005116
     18          1           0        4.103583   -0.607075   -2.152451
     19          1           0        4.235256   -0.402119    2.139953
     20          1           0        0.232101   -1.050171    0.075235
     21          1           0        1.970590    0.682357   -2.141951
     22          6           0       -4.446872   -0.619077    0.002785
     23          8           0       -5.409500    0.139475   -0.034138
     24          6           0       -4.662265   -2.124248    0.049505
     25          1           0       -5.735330   -2.325384    0.042901
     26          1           0       -4.195987   -2.615493   -0.813527
     27          1           0       -4.217741   -2.557382    0.954140
     28          6           0        5.602738   -1.412225   -0.014456
     29          1           0        5.399698   -2.477699   -0.186638
     30          1           0        6.278350   -1.077778   -0.810368
     31          1           0        6.136634   -1.328236    0.938086
 ---------------------------------------------------------------------

 SCF Done:  E(RB3LYP) =  -730.530874188     A.U. after    1 cycles

 The electronic state is 1-A.
 Alpha  occ. eigenvalues --  -19.20824 -19.14111 -10.28041 -10.27458 -10.26343
 Alpha  occ. eigenvalues --  -10.21723 -10.21587 -10.21053 -10.21013 -10.20958
 Alpha  occ. eigenvalues --  -10.20954 -10.20721 -10.20705 -10.20478 -10.20351
 Alpha  occ. eigenvalues --  -10.19907 -10.19280  -1.09627  -1.03810  -0.88001
 Alpha  occ. eigenvalues --   -0.86718  -0.79758  -0.77198  -0.76662  -0.76518
 Alpha  occ. eigenvalues --   -0.73674  -0.70034  -0.64432  -0.63344  -0.63159
 Alpha  occ. eigenvalues --   -0.59559  -0.56225  -0.56110  -0.50172  -0.49648
 Alpha  occ. eigenvalues --   -0.49133  -0.48269  -0.46216  -0.45998  -0.44654
 Alpha  occ. eigenvalues --   -0.44135  -0.44045  -0.43485  -0.42913  -0.42348
 Alpha  occ. eigenvalues --   -0.41512  -0.40415  -0.39744  -0.38320  -0.37410
 Alpha  occ. eigenvalues --   -0.37291  -0.36771  -0.36105  -0.34774  -0.33424
 Alpha  occ. eigenvalues --   -0.27410  -0.26901  -0.25503  -0.25313  -0.24216
 Alpha virt. eigenvalues --   -0.05954  -0.03373  -0.02430  -0.01901  -0.00436
 Alpha virt. eigenvalues --    0.00505   0.01463   0.01646   0.02682   0.02945
 Alpha virt. eigenvalues --    0.03081   0.04128   0.04303   0.04344   0.04698

 Mulliken charges:
               1
     1  C    0.616807
     2  C   -1.005536
     3  C    0.206794
     4  C   -0.314685
     5  C   -0.634453
     6  C    0.242569
     7  H    0.184787
     8  H    0.197442
     9  H    0.222418
    10  O   -0.315744
    11  C   -0.051436
    12  C    0.141543
    13  C    0.089679
    14  C   -0.132237
    15  C   -0.532502
    16  H    0.193550
    17  C    0.338808
    18  H    0.181585
    19  H    0.180441
    20  H    0.208164
    21  H    0.193228
    22  C    0.596151
    23  O   -0.447596
    24  C   -0.906057
    25  H    0.241167
    26  H    0.226223
    27  H    0.226281
    28  C   -0.799269
    29  H    0.227572
    30  H    0.216332
    31  H    0.207977
 Sum of Mulliken charges =   0.00000

 Dipole moment (field-independent basis, Debye):
    X=              4.7415    Y=             -2.6812    Z=              0.0512  Tot=              5.4473
 Quadrupole moment (field-independent basis, Debye-Ang):
   XX=           -114.6806   YY=            -96.5507   ZZ=            -97.1381
   XY=              2.1152   XZ=             -0.3227   YZ=              0.1466

  Exact polarizability: 268.844 -13.261 158.599   1.147   0.496 134.194
 Approx polarizability: 353.293 -29.839 259.615   2.867   1.198 222.737

 ******    1 imaginary frequencies (negative Signs) ******

                      1                      2                      3
                      A                      A                      A
 Frequencies --     -9.9866                 9.4112                36.8882
 Red. masses --      1.2757                 2.4265                 4.0836
 Frc consts  --      0.0001                 0.0001                 0.0033
 IR Inten    --      0.0709                 0.2038                 1.8297

                      4                      5                      6
                      A                      A                      A
 Frequencies --     46.4264                70.3518                93.3115
 Red. masses --      4.4553                 3.6586                 6.8427
 Frc consts  --      0.0057                 0.0107                 0.0351
 IR Inten    --      0.0550                 2.2542                 1.4554

                      7                      8                      9
                      A                      A                      A
 Frequencies --    144.6506               177.2179               194.4288
 Red. masses --      4.0920                 1.0348                 5.8081
 Frc consts  --      0.0504                 0.0191                 0.1294
 IR Inten    --      1.9793                 0.1363                 2.1742

                     10                     11                     12
                      A                      A                      A
 Frequencies --    262.6898               281.8665               323.5554
 Red. masses --      5.2856                 4.4522                 3.5125
 Frc consts  --      0.2149                 0.2084                 0.2167
 IR Inten    --      0.0724                 1.8909                 0.2755

                     13                     14                     15
                      A                      A                      A
 Frequencies --    330.2840               395.0276               423.2115
 Red. masses --      4.4851                 4.9181                 3.0579
 Frc consts  --      0.2883                 0.4522                 0.3227
 IR Inten    --      3.4577                 0.4684                 0.0964

                     16                     17                     18
                      A                      A                      A
 Frequencies --    424.7636               432.6608               457.6101
 Red. masses --      3.1048                 3.9223                 4.0270
 Frc consts  --      0.3301                 0.4326                 0.4968
 IR Inten    --      0.3495                 3.1697                 6.7593

                     19                     20                     21
                      A                      A                      A
 Frequencies --    501.9503               504.9275               557.0551
 Red. masses --      3.0562                 3.5188                 4.6886
 Frc consts  --      0.4537                 0.5286                 0.8572
 IR Inten    --      3.2641                10.8931                23.8808

                     22                     23                     24
                      A                      A                      A
 Frequencies --    600.5000               603.8115               641.4762
 Red. masses --      2.3586                 3.9947                 6.5767
 Frc consts  --      0.5011                 0.8581                 1.5945
 IR Inten    --     12.1893                11.7441                 1.8793

                     25                     26                     27
                      A                      A                      A
 Frequencies --    653.4518               685.4196               724.0647
 Red. masses --      6.9426                 4.6231                 3.1907
 Frc consts  --      1.7466                 1.2797                 0.9856
 IR Inten    --      0.0315                 1.0298                 3.5929

                     28                     29                     30
                      A                      A                      A
 Frequencies --    731.9028               760.6773               823.0856
 Red. masses --      3.9191                 4.1288                 3.8529
 Frc consts  --      1.2369                 1.4076                 1.5379
 IR Inten    --      1.1266                 1.0363                 4.8527

                     31                     32                     33
                      A                      A                      A
 Frequencies --    828.4864               841.3269               855.1176
 Red. masses --      1.2987                 1.2469                 1.5339
 Frc consts  --      0.5252                 0.5200                 0.6608
 IR Inten    --      8.6923                 0.0129                44.3620

                     34                     35                     36
                      A                      A                      A
 Frequencies --    857.9627               891.8950               959.1493
 Red. masses --      1.9984                 6.5260                 1.3209
 Frc consts  --      0.8667                 3.0586                 0.7160
 IR Inten    --     37.4828                38.9567                 0.2374

                     37                     38                     39
                      A                      A                      A
 Frequencies --    961.2895               967.3577               972.7329
 Red. masses --      1.3149                 2.2303                 1.3498
 Frc consts  --      0.7159                 1.2296                 0.7525
 IR Inten    --      0.5055                60.5920                 0.0460

                     40                     41                     42
                      A                      A                      A
 Frequencies --    996.9476              1020.7086              1028.0504
 Red. masses --      1.3209                 1.3988                 2.8484
 Frc consts  --      0.7735                 0.8587                 1.7737
 IR Inten    --      0.3977                 0.7747                 1.6546

                     43                     44                     45
                      A                      A                      A
 Frequencies --   1038.2146              1053.1634              1073.3141
 Red. masses --      2.7076                 1.8417                 1.5128
 Frc consts  --      1.7195                 1.2035                 1.0268
 IR Inten    --     15.1672                 0.8037                 6.3289

                     46                     47                     48
                      A                      A                      A
 Frequencies --   1098.3961              1141.4661              1154.2541
 Red. masses --      2.3396                 1.2931                 1.2889
 Frc consts  --      1.6630                 0.9927                 1.0118
 IR Inten    --      3.6932                 7.9016                12.8501

                     49                     50                     51
                      A                      A                      A
 Frequencies --   1197.2633              1209.2124              1232.6288
 Red. masses --      1.3875                 1.3264                 3.8533
 Frc consts  --      1.1718                 1.1427                 3.4494
 IR Inten    --      8.0820               167.2381                10.9224

                     52                     53                     54
                      A                      A                      A
 Frequencies --   1235.9937              1281.7409              1294.1311
 Red. masses --      1.9293                 5.0958                 3.3462
 Frc consts  --      1.7365                 4.9325                 3.3019
 IR Inten    --     68.0336               725.5644                81.6884

                     55                     56                     57
                      A                      A                      A
 Frequencies --   1333.8328              1343.4177              1343.6890
 Red. masses --      1.7741                 1.6490                 2.0536
 Frc consts  --      1.8597                 1.7535                 2.1846
 IR Inten    --      0.5555                 1.6864                 1.4426

                     58                     59                     60
                      A                      A                      A
 Frequencies --   1360.4902              1407.5730              1440.6896
 Red. masses --      9.5873                 1.3201                 1.2346
 Frc consts  --     10.4553                 1.5410                 1.5098
 IR Inten    --      7.6123                40.5387                 0.7011

                     61                     62                     63
                      A                      A                      A
 Frequencies --   1447.4319              1461.3470              1496.2334
 Red. masses --      2.5972                 3.0693                 1.0641
 Frc consts  --      3.2060                 3.8619                 1.4036
 IR Inten    --      0.2014                52.1325                20.9346

                     64                     65                     66
                      A                      A                      A
 Frequencies --   1504.0000              1511.0003              1517.0146
 Red. masses --      1.0473                 1.0536                 1.0935
 Frc consts  --      1.3958                 1.4173                 1.4827
 IR Inten    --     11.7921                 7.9854                 9.5840

                     67                     68                     69
                      A                      A                      A
 Frequencies --   1545.0227              1553.3080              1617.2627
 Red. masses --      2.4240                 2.5106                 6.5230
 Frc consts  --      3.4093                 3.5690                10.0521
 IR Inten    --    201.4149                34.6598                63.3507

                     70                     71                     72
                      A                      A                      A
 Frequencies --   1633.1083              1648.0601              1663.8935
 Red. masses --      6.2362                 5.5285                 5.7732
 Frc consts  --      9.7994                 8.8472                 9.4172
 IR Inten    --      5.9249               245.0388                40.7830

                     73                     74                     75
                      A                      A                      A
 Frequencies --   1744.4703              3036.5097              3046.1854
 Red. masses --     10.3606                 1.0392                 1.0382
 Frc consts  --     18.5764                 5.6457                 5.6762
 IR Inten    --    234.8697                36.9616                 4.2766

                     76                     77                     78
                      A                      A                      A
 Frequencies --   3090.8895              3105.0182              3116.9696
 Red. masses --      1.0977                 1.0999                 1.1021
 Frc consts  --      6.1785                 6.2481                 6.3084
 IR Inten    --     18.5909                 9.6966                16.7913

                     79                     80                     81
                      A                      A                      A
 Frequencies --   3160.4613              3177.1215              3180.2151
 Red. masses --      1.1011                 1.0891                 1.0891
 Frc consts  --      6.4800                 6.4773                 6.4898
 IR Inten    --     14.7564                16.4735                18.1123

                     82                     83                     84
                      A                      A                      A
 Frequencies --   3203.2583              3206.1212              3208.6983
 Red. masses --      1.0881                 1.0888                 1.0935
 Frc consts  --      6.5783                 6.5940                 6.6334
 IR Inten    --      9.9764                 0.3578                 7.5340

                     85                     86                     87
                      A                      A                      A
 Frequencies --   3210.2901              3222.0629              3225.5267
 Red. masses --      1.0939                 1.0939                 1.0930
 Frc consts  --      6.6424                 6.6914                 6.7000
 IR Inten    --      3.2979                 4.7954                 3.6679

 - Thermochemistry -
 -------------------
 Temperature   298.150 Kelvin.  Pressure   1.00000 Atm.
 Atom     1 has atomic number  6 and mass  12.00000

 Molecular mass:   226.09938 amu.
 Principal axes and moments of inertia in atomic units:
                           1         2         3
     Eigenvalues --  1317.317789724.70036**********
           X            1.00000  -0.00091  -0.00018
           Y            0.00091   1.00000  -0.00017
           Z            0.00018   0.00017   1.00000
 This molecule is an asymmetric top.
 Rotational symmetry number  1.
 Warning -- assumption of classical behavior for rotation
           may cause significant error
 Rotational temperatures (Kelvin)      0.06575     0.00891     0.00834
 Rotational constants (GHZ):           1.37001     0.18558     0.17374
    1 imaginary frequencies ignored.
 Zero-point vibrational energy     657016.9 (Joules/Mol)
                                  157.03082 (Kcal/Mol)
 Warning -- explicit consideration of  22 degrees of freedom as
           vibrations may cause significant error
 Vibrational temperatures:     13.54    53.07    66.80   101.22   134.25
          (Kelvin)            208.12   254.98   279.74   377.95   405.54
                              465.52   475.21   568.36   608.91   611.14
                              622.50   658.40   722.19   726.48   801.48
                              863.99   868.75   922.94   940.17   986.17
                             1041.77  1053.04  1094.45  1184.24  1192.01
                             1210.48  1230.32  1234.42  1283.24  1380.00
                             1383.08  1391.81  1399.55  1434.39  1468.57
                             1479.14  1493.76  1515.27  1544.26  1580.35
                             1642.32  1660.71  1722.59  1739.79  1773.48
                             1778.32  1844.14  1861.97  1919.09  1932.88
                             1933.27  1957.44  2025.18  2072.83  2082.53
                             2102.55  2152.75  2163.92  2173.99  2182.65
                             2222.94  2234.86  2326.88  2349.68  2371.19
                             2393.97  2509.90  4368.86  4382.78  4447.10
                             4467.43  4484.62  4547.20  4571.17  4575.62
                             4608.77  4612.89  4616.60  4618.89  4635.83
                             4640.81

 Zero-point correction=                           0.250245 (Hartree/Particle)
 Thermal correction to Energy=                    0.264816
 Thermal correction to Enthalpy=                  0.265760
 Thermal correction to Gibbs Free Energy=         0.205814
 Sum of electronic and zero-point Energies=           -730.280630
 Sum of electronic and thermal Energies=              -730.266058
 Sum of electronic and thermal Enthalpies=            -730.265114
 Sum of electronic and thermal Free Energies=         -730.325060

                     E (Thermal)             CV                S
                      KCal/Mol        Cal/Mol-Kelvin    Cal/Mol-Kelvin
 Total                  166.175             56.380            126.169
 Electronic               0.000              0.000              0.000
 Translational            0.889              2.981             42.150
 Rotational               0.889              2.981             33.253
 Vibrational            164.397             50.418             50.766
 Vibration     1          0.593              1.987              8.132
 Vibration     2          0.594              1.982              5.420
 Vibration     3          0.595              1.979              4.964
 Vibration     4          0.598              1.968              4.143
 Vibration     5          0.602              1.954              3.589
 Vibration     6          0.616              1.908              2.741
 Vibration     7          0.628              1.870              2.358
 Vibration     8          0.635              1.848              2.185
 Vibration     9          0.670              1.741              1.644
 Vibration    10          0.681              1.707              1.522
 Vibration    11          0.708              1.628              1.292
 Vibration    12          0.713              1.615              1.259
 Vibration    13          0.762              1.481              0.981
 Vibration    14          0.785              1.420              0.881
 Vibration    15          0.787              1.416              0.876
 Vibration    16          0.794              1.399              0.850
 Vibration    17          0.816              1.344              0.773
 Vibration    18          0.857              1.246              0.653
 Vibration    19          0.860              1.239              0.646
 Vibration    20          0.913              1.124              0.530
 Vibration    21          0.959              1.031              0.449
 Vibration    22          0.962              1.024              0.443

                           ! Non-Optimized Parameters !
 Normal termination of Gaussian 16 at Fri Sep 15 06:04:09 2023.
