 Gaussian 16, Revision B.01,
 Gaussian 16:  EM64L-G16RevB.01 20-Dec-2017

 ----------------------------------------------------------------------
 # opt freq b3lyp/6-31+g(d) geom=connectivity empiricaldispersion=gd3 v
 olume
 ----------------------------------------------------------------------

 --------------
 ML molecule102
 --------------
 Symbolic Z-matrix:
 Charge =  0 Multiplicity = 1

 SCF Done:  E(RB3LYP) =  -554.484061103     A.U. after   15 cycles
 SCF Done:  E(RB3LYP) =  -554.516408386     A.U. after   16 cycles
 SCF Done:  E(RB3LYP) =  -554.543678826     A.U. after   15 cycles
 SCF Done:  E(RB3LYP) =  -554.564216000     A.U. after   14 cycles
 SCF Done:  E(RB3LYP) =  -554.561796275     A.U. after   16 cycles
 SCF Done:  E(RB3LYP) =  -554.571427168     A.U. after   15 cycles
 SCF Done:  E(RB3LYP) =  -554.579724665     A.U. after   15 cycles
 SCF Done:  E(RB3LYP) =  -554.583071182     A.U. after   16 cycles
 SCF Done:  E(RB3LYP) =  -554.581464280     A.U. after   16 cycles
 SCF Done:  E(RB3LYP) =  -554.583614102     A.U. after   13 cycles
 SCF Done:  E(RB3LYP) =  -554.583789650     A.U. after   13 cycles
 SCF Done:  E(RB3LYP) =  -554.583803631     A.U. after   11 cycles
 SCF Done:  E(RB3LYP) =  -554.583806179     A.U. after   10 cycles
 SCF Done:  E(RB3LYP) =  -554.583806481     A.U. after   10 cycles
 SCF Done:  E(RB3LYP) =  -554.583806567     A.U. after    9 cycles
 SCF Done:  E(RB3LYP) =  -554.583806589     A.U. after    9 cycles
 SCF Done:  E(RB3LYP) =  -554.583806598     A.U. after    9 cycles
 Optimization completed.
    -- Stationary point found.
 Normal termination of Gaussian 16 at Fri Sep 15 09:41:29 2023.

 ---------------------------------------------------------------------
 #N Geom=AllCheck Guess=TCheck SCRF=Check GenChk RB3LYP/6-31+G(d) Freq
 ---------------------------------------------------------------------

 Structure from the checkpoint file:  "molecule_102.chk"
 --------------
 ML molecule102
 --------------
 Charge =  0 Multiplicity = 1

                         Standard orientation:
 ---------------------------------------------------------------------
 Center     Atomic      Atomic             Coordinates (Angstroms)
 Number     Number       Type             X           Y           Z
 ---------------------------------------------------------------------
      1          6           0        3.695451    0.697436    0.104089
      2          6           0        2.634025    1.258580    0.821711
      3          6           0        1.374799    0.654080    0.817234
      4          6           0        1.185118   -0.515439    0.075298
      5          6           0        2.234619   -1.089216   -0.643230
      6          6           0        3.491281   -0.479124   -0.623503
      7          1           0        2.784642    2.169214    1.395676
      8          1           0        2.052803   -2.001084   -1.203784
      9          1           0        4.309819   -0.923673   -1.183528
     10          8           0       -0.019863   -1.204082    0.079096
     11          6           0       -1.210918   -0.517036    0.001460
     12          6           0       -1.389775    0.613840   -0.807569
     13          6           0       -2.301478   -1.027421    0.704553
     14          6           0       -3.528901   -0.378382    0.574474
     15          1           0       -2.173554   -1.907600    1.327645
     16          6           0       -3.611582    0.749816   -0.246798
     17          1           0       -4.406594   -0.738760    1.103790
     18          1           0        0.549506    1.081952    1.377835
     19          1           0       -0.553781    1.023125   -1.369196
     20          1           0        4.672568    1.172240    0.113608
     21          1           0       -4.553246    1.280282   -0.369347
     22          7           0       -2.565584    1.239165   -0.927398
 ---------------------------------------------------------------------

 SCF Done:  E(RB3LYP) =  -554.583806598     A.U. after    1 cycles

 The electronic state is 1-A.
 Alpha  occ. eigenvalues --  -19.20859 -14.34699 -10.27120 -10.26639 -10.23364
 Alpha  occ. eigenvalues --  -10.23032 -10.21890 -10.21457 -10.20900 -10.20840
 Alpha  occ. eigenvalues --  -10.20670 -10.20437 -10.20280  -1.09627  -0.95211
 Alpha  occ. eigenvalues --   -0.86906  -0.81809  -0.77921  -0.76275  -0.74707
 Alpha  occ. eigenvalues --   -0.66046  -0.64799  -0.62495  -0.60494  -0.56268
 Alpha  occ. eigenvalues --   -0.52934  -0.50902  -0.50516  -0.48470  -0.45925
 Alpha  occ. eigenvalues --   -0.45560  -0.43933  -0.42557  -0.42149  -0.41399
 Alpha  occ. eigenvalues --   -0.39412  -0.38758  -0.37609  -0.36094  -0.35078
 Alpha  occ. eigenvalues --   -0.29504  -0.27435  -0.26869  -0.26413  -0.23569
 Alpha virt. eigenvalues --   -0.04323  -0.02894  -0.02070  -0.01072   0.00099
 Alpha virt. eigenvalues --    0.00887   0.02183   0.02767   0.03036   0.03735
 Alpha virt. eigenvalues --    0.04459   0.04650   0.05033   0.05843   0.06579

 Mulliken charges:
               1
     1  C   -0.154371
     2  C   -0.266915
     3  C    0.385689
     4  C   -0.231008
     5  C   -0.169522
     6  C   -0.300134
     7  H    0.184794
     8  H    0.193642
     9  H    0.184524
    10  O   -0.371814
    11  C    0.139685
    12  C   -0.323473
    13  C    0.041122
    14  C   -0.039123
    15  H    0.201815
    16  C   -0.280851
    17  H    0.190607
    18  H    0.195399
    19  H    0.201714
    20  H    0.180760
    21  H    0.183037
    22  N   -0.145579
 Sum of Mulliken charges =   0.00000

 Dipole moment (field-independent basis, Debye):
    X=              0.6118    Y=             -0.8038    Z=              1.3044  Tot=              1.6498
 Quadrupole moment (field-independent basis, Debye-Ang):
   XX=            -65.4692   YY=            -77.2228   ZZ=            -77.4709
   XY=              5.3047   XZ=             -6.9998   YZ=              3.7166

  Exact polarizability: 193.880   0.832 118.641 -12.407   1.194  98.709
 Approx polarizability: 268.589   0.592 204.299 -26.080   0.597 160.408

                      1                      2                      3
                      A                      A                      A
 Frequencies --     23.6031                44.9297                88.4004
 Red. masses --      4.8634                 4.2045                 5.1179
 Frc consts  --      0.0016                 0.0050                 0.0236
 IR Inten    --      0.9078                 1.3452                 0.5749

                      4                      5                      6
                      A                      A                      A
 Frequencies --    216.1970               240.0066               319.2913
 Red. masses --      4.4044                 4.4150                 5.2395
 Frc consts  --      0.1213                 0.1498                 0.3147
 IR Inten    --      0.3862                 0.1411                 0.7798

                      7                      8                      9
                      A                      A                      A
 Frequencies --    381.6003               420.9726               424.9340
 Red. masses --      6.1711                 3.1228                 3.1424
 Frc consts  --      0.5295                 0.3261                 0.3343
 IR Inten    --      5.8454                 2.5418                 1.2816

                     10                     11                     12
                      A                      A                      A
 Frequencies --    482.8500               507.7426               590.0565
 Red. masses --      4.1211                 3.3689                 7.8411
 Frc consts  --      0.5661                 0.5117                 1.6085
 IR Inten    --      7.3703                11.0362                 0.4703

                     13                     14                     15
                      A                      A                      A
 Frequencies --    615.4303               626.7631               645.4084
 Red. masses --      5.5757                 6.8540                 6.6075
 Frc consts  --      1.2442                 1.5864                 1.6217
 IR Inten    --      1.0473                 1.9213                 1.6572

                     16                     17                     18
                      A                      A                      A
 Frequencies --    700.1144               717.6124               764.5134
 Red. masses --      2.2233                 2.3635                 1.8904
 Frc consts  --      0.6421                 0.7171                 0.6510
 IR Inten    --     27.9531                22.9181                48.9705

                     19                     20                     21
                      A                      A                      A
 Frequencies --    793.1275               827.1683               840.9154
 Red. masses --      2.7953                 1.9245                 1.2530
 Frc consts  --      1.0360                 0.7758                 0.5220
 IR Inten    --     22.6394                26.7598                 0.4903

                     22                     23                     24
                      A                      A                      A
 Frequencies --    888.3036               916.5887               928.4671
 Red. masses --      6.1715                 1.4845                 1.3065
 Frc consts  --      2.8692                 0.7348                 0.6636
 IR Inten    --     30.9373                 5.2226                 0.5178

                     25                     26                     27
                      A                      A                      A
 Frequencies --    954.1354               974.3979               990.2699
 Red. masses --      1.4361                 1.3494                 1.3554
 Frc consts  --      0.7703                 0.7549                 0.7831
 IR Inten    --      1.7937                 0.1870                 0.2637

                     28                     29                     30
                      A                      A                      A
 Frequencies --    995.1473              1015.7366              1033.2313
 Red. masses --      1.2689                 6.1999                 4.1833
 Frc consts  --      0.7404                 3.7687                 2.6313
 IR Inten    --      0.1259                 0.5870                 6.7674

                     31                     32                     33
                      A                      A                      A
 Frequencies --   1048.9767              1065.9385              1108.0858
 Red. masses --      2.1066                 2.4463                 1.5232
 Frc consts  --      1.3657                 1.6377                 1.1019
 IR Inten    --      7.2189                 2.0029                 7.2098

                     34                     35                     36
                      A                      A                      A
 Frequencies --   1137.8437              1195.4246              1200.7222
 Red. masses --      1.3730                 1.1478                 1.2544
 Frc consts  --      1.0473                 0.9664                 1.0655
 IR Inten    --     13.7509                 4.6001                14.7191

                     37                     38                     39
                      A                      A                      A
 Frequencies --   1223.9772              1231.1522              1283.7154
 Red. masses --      2.4200                 1.5331                 4.5763
 Frc consts  --      2.1360                 1.3692                 4.4433
 IR Inten    --      8.9543                 7.9500               531.7906

                     40                     41                     42
                      A                      A                      A
 Frequencies --   1299.7002              1340.0260              1362.6938
 Red. masses --      5.8376                 2.1596                 2.4077
 Frc consts  --      5.8100                 2.2849                 2.6342
 IR Inten    --      3.1215                 0.1059                 4.2673

                     43                     44                     45
                      A                      A                      A
 Frequencies --   1368.3257              1465.8377              1496.4319
 Red. masses --      1.3284                 2.3442                 2.2608
 Frc consts  --      1.4654                 2.9676                 2.9828
 IR Inten    --      0.4603                55.2241                 5.5347

                     46                     47                     48
                      A                      A                      A
 Frequencies --   1518.1610              1532.7436              1621.3216
 Red. masses --      2.2065                 2.2234                 5.4013
 Frc consts  --      2.9964                 3.0775                 8.3654
 IR Inten    --    117.8947                91.5763                 8.0410

                     49                     50                     51
                      A                      A                      A
 Frequencies --   1631.7152              1641.8412              1653.3362
 Red. masses --      5.8656                 5.8615                 5.8458
 Frc consts  --      9.2013                 9.3094                 9.4150
 IR Inten    --     84.0024                12.8171                21.6315

                     52                     53                     54
                      A                      A                      A
 Frequencies --   3181.2884              3183.2141              3191.9420
 Red. masses --      1.0880                 1.0857                 1.0894
 Frc consts  --      6.4875                 6.4818                 6.5398
 IR Inten    --     12.2611                 1.3381                 8.4766

                     55                     56                     57
                      A                      A                      A
 Frequencies --   3192.5467              3201.3153              3205.0386
 Red. masses --      1.0908                 1.0920                 1.0924
 Frc consts  --      6.5501                 6.5937                 6.6117
 IR Inten    --     25.1831                16.9615                26.7918

                     58                     59                     60
                      A                      A                      A
 Frequencies --   3213.0082              3216.1369              3216.5153
 Red. masses --      1.0939                 1.0965                 1.0963
 Frc consts  --      6.6536                 6.6822                 6.6828
 IR Inten    --      9.9516                 3.6202                 6.3333

 - Thermochemistry -
 -------------------
 Temperature   298.150 Kelvin.  Pressure   1.00000 Atm.
 Atom     1 has atomic number  6 and mass  12.00000

 Molecular mass:   171.06841 amu.
 Principal axes and moments of inertia in atomic units:
                           1         2         3
     Eigenvalues --   753.832954150.210424417.10034
           X            0.99996   0.00558  -0.00725
           Y           -0.00530   0.99924   0.03859
           Z            0.00746  -0.03855   0.99923
 This molecule is an asymmetric top.
 Rotational symmetry number  1.
 Warning -- assumption of classical behavior for rotation
           may cause significant error
 Rotational temperatures (Kelvin)      0.11490     0.02087     0.01961
 Rotational constants (GHZ):           2.39409     0.43486     0.40858
 Zero-point vibrational energy     455758.6 (Joules/Mol)
                                  108.92892 (Kcal/Mol)
 Warning -- explicit consideration of  13 degrees of freedom as
           vibrations may cause significant error
 Vibrational temperatures:     33.96    64.64   127.19   311.06   345.32
          (Kelvin)            459.39   549.04   605.69   611.39   694.71
                              730.53   848.96   885.47   901.77   928.60
                             1007.31  1032.48  1099.96  1141.13  1190.11
                             1209.89  1278.07  1318.77  1335.86  1372.79
                             1401.94  1424.78  1431.80  1461.42  1486.59
                             1509.24  1533.65  1594.29  1637.10  1719.95
                             1727.57  1761.03  1771.35  1846.98  1869.98
                             1928.00  1960.61  1968.72  2109.01  2153.03
                             2184.30  2205.28  2332.72  2347.67  2362.24
                             2378.78  4577.16  4579.94  4592.49  4593.36
                             4605.98  4611.34  4622.80  4627.30  4627.85

 Zero-point correction=                           0.173589 (Hartree/Particle)
 Thermal correction to Energy=                    0.183465
 Thermal correction to Enthalpy=                  0.184410
 Thermal correction to Gibbs Free Energy=         0.136293
 Sum of electronic and zero-point Energies=           -554.410217
 Sum of electronic and thermal Energies=              -554.400341
 Sum of electronic and thermal Enthalpies=            -554.399397
 Sum of electronic and thermal Free Energies=         -554.447514

                     E (Thermal)             CV                S
                      KCal/Mol        Cal/Mol-Kelvin    Cal/Mol-Kelvin
 Total                  115.126             39.009            101.270
 Electronic               0.000              0.000              0.000
 Translational            0.889              2.981             41.318
 Rotational               0.889              2.981             31.003
 Vibrational            113.349             33.047             28.949
 Vibration     1          0.593              1.985              6.305
 Vibration     2          0.595              1.979              5.029
 Vibration     3          0.601              1.957              3.695
 Vibration     4          0.645              1.816              1.991
 Vibration     5          0.657              1.779              1.803
 Vibration     6          0.705              1.637              1.314
 Vibration     7          0.751              1.509              1.033
 Vibration     8          0.783              1.425              0.889
 Vibration     9          0.787              1.416              0.875
 Vibration    10          0.839              1.288              0.702
 Vibration    11          0.863              1.233              0.639
 Vibration    12          0.947              1.053              0.467
 Vibration    13          0.975              0.999              0.424

 Optimization completed.
    -- Stationary point found.
 Normal termination of Gaussian 16 at Fri Sep 15 09:44:14 2023.
