 Gaussian 16, Revision B.01,
 Gaussian 16:  EM64L-G16RevB.01 20-Dec-2017

 ---------------------------------------------------------
 # opt freq b3lyp/6-31+g(d) empiricaldispersion=gd3 volume
 ---------------------------------------------------------

 -------------------
 Title Card Required
 -------------------
 Symbolic Z-matrix:
 Charge =  0 Multiplicity = 1

 SCF Done:  E(RB3LYP) =  -618.118973673     A.U. after   15 cycles
 SCF Done:  E(RB3LYP) =  -618.137833405     A.U. after   14 cycles
 SCF Done:  E(RB3LYP) =  -618.131306152     A.U. after   16 cycles
 SCF Done:  E(RB3LYP) =  -618.137366183     A.U. after   14 cycles
 SCF Done:  E(RB3LYP) =  -618.139188012     A.U. after   10 cycles
 SCF Done:  E(RB3LYP) =  -618.139428327     A.U. after   14 cycles
 SCF Done:  E(RB3LYP) =  -618.138685417     A.U. after   15 cycles
 SCF Done:  E(RB3LYP) =  -618.139475529     A.U. after   16 cycles
 SCF Done:  E(RB3LYP) =  -618.139542944     A.U. after   15 cycles
 SCF Done:  E(RB3LYP) =  -618.139574397     A.U. after   14 cycles
 SCF Done:  E(RB3LYP) =  -618.139737624     A.U. after   11 cycles
 SCF Done:  E(RB3LYP) =  -618.139738168     A.U. after   12 cycles
 SCF Done:  E(RB3LYP) =  -618.139739790     A.U. after   11 cycles
 SCF Done:  E(RB3LYP) =  -618.139740143     A.U. after   11 cycles
 SCF Done:  E(RB3LYP) =  -618.139740379     A.U. after   10 cycles
 SCF Done:  E(RB3LYP) =  -618.139740476     A.U. after    9 cycles
 SCF Done:  E(RB3LYP) =  -618.139740496     A.U. after   10 cycles
 SCF Done:  E(RB3LYP) =  -618.139740503     A.U. after    9 cycles
 SCF Done:  E(RB3LYP) =  -618.139740506     A.U. after    8 cycles
 Optimization completed.
    -- Stationary point found.
 Normal termination of Gaussian 16 at Sat Sep 16 12:20:43 2023.

 ---------------------------------------------------------------------
 #N Geom=AllCheck Guess=TCheck SCRF=Check GenChk RB3LYP/6-31+G(d) Freq
 ---------------------------------------------------------------------

 Structure from the checkpoint file:  "molecule_61.chk"
 -------------------
 Title Card Required
 -------------------
 Charge =  0 Multiplicity = 1

                         Standard orientation:
 ---------------------------------------------------------------------
 Center     Atomic      Atomic             Coordinates (Angstroms)
 Number     Number       Type             X           Y           Z
 ---------------------------------------------------------------------
      1          6           0        3.417148    1.225353    0.008253
      2          6           0        2.019947    1.215196    0.011357
      3          6           0        1.307446   -0.000031    0.000017
      4          6           0        2.019982   -1.215226   -0.011332
      5          6           0        3.417188   -1.225338   -0.008270
      6          6           0        4.098705    0.000017   -0.000019
      7          1           0        1.467566    2.151152    0.020169
      8          1           0        1.467653   -2.151212   -0.020107
      9          6           0       -0.118316   -0.000030    0.000017
     10          6           0       -1.335784   -0.000006    0.000007
     11          6           0       -2.761156   -0.000007    0.000004
     12          6           0       -3.478980    1.214487    0.011830
     13          6           0       -3.478981   -1.214498   -0.011831
     14          6           0       -4.873070    1.209831    0.011824
     15          1           0       -2.931628    2.152639    0.020938
     16          6           0       -4.873073   -1.209839   -0.011836
     17          1           0       -2.931633   -2.152652   -0.020933
     18          6           0       -5.575842   -0.000004   -0.000009
     19          1           0       -5.413217    2.153171    0.021038
     20          1           0       -5.413220   -2.153178   -0.021056
     21          1           0       -6.662707   -0.000002   -0.000014
     22          1           0        5.188069    0.000042   -0.000046
     23          6           0        4.183094   -2.529162    0.015769
     24          1           0        4.528634   -2.762367    1.031837
     25          1           0        3.562495   -3.366247   -0.321531
     26          1           0        5.069789   -2.484035   -0.627244
     27          6           0        4.182978    2.529222   -0.015778
     28          1           0        3.562340    3.366255    0.321598
     29          1           0        5.069703    2.484130    0.627192
     30          1           0        4.528428    2.762501   -1.031856
 ---------------------------------------------------------------------

 SCF Done:  E(RB3LYP) =  -618.139740506     A.U. after    2 cycles

 The electronic state is 1-A.
 Alpha  occ. eigenvalues --  -10.22316 -10.21948 -10.20675 -10.20674 -10.20348
 Alpha  occ. eigenvalues --  -10.20347 -10.20259 -10.20207 -10.20180 -10.19572
 Alpha  occ. eigenvalues --  -10.19571 -10.19515 -10.19316 -10.19289 -10.19037
 Alpha  occ. eigenvalues --  -10.19037  -0.87045  -0.86713  -0.79878  -0.78826
 Alpha  occ. eigenvalues --   -0.77641  -0.75560  -0.72324  -0.69681  -0.68830
 Alpha  occ. eigenvalues --   -0.63926  -0.61448  -0.60907  -0.58014  -0.54392
 Alpha  occ. eigenvalues --   -0.51468  -0.49171  -0.48123  -0.47670  -0.46139
 Alpha  occ. eigenvalues --   -0.44150  -0.43083  -0.43069  -0.42107  -0.41929
 Alpha  occ. eigenvalues --   -0.41084  -0.40309  -0.38634  -0.38402  -0.36670
 Alpha  occ. eigenvalues --   -0.36453  -0.35685  -0.35410  -0.34718  -0.31473
 Alpha  occ. eigenvalues --   -0.27251  -0.27038  -0.26230  -0.24685  -0.21535
 Alpha virt. eigenvalues --   -0.05631  -0.01769  -0.01125  -0.00583   0.00220
 Alpha virt. eigenvalues --    0.00857   0.01722   0.02375   0.02538   0.03708
 Alpha virt. eigenvalues --    0.03755   0.03859   0.04490   0.04758   0.05911

 Mulliken charges:
               1
     1  C    0.444447
     2  C   -0.436810
     3  C   -0.229828
     4  C   -0.436861
     5  C    0.444455
     6  C   -0.380529
     7  H    0.186077
     8  H    0.186076
     9  C    0.150083
    10  C   -0.186356
    11  C    0.569767
    12  C   -0.419337
    13  C   -0.419265
    14  C   -0.124865
    15  H    0.192837
    16  C   -0.124884
    17  H    0.192838
    18  C   -0.195887
    19  H    0.181667
    20  H    0.181667
    21  H    0.180291
    22  H    0.173100
    23  C   -0.712185
    24  H    0.227099
    25  H    0.208014
    26  H    0.212733
    27  C   -0.712191
    28  H    0.208015
    29  H    0.212732
    30  H    0.227099
 Sum of Mulliken charges =   0.00000

 Dipole moment (field-independent basis, Debye):
    X=              0.6490    Y=              0.0000    Z=              0.0000  Tot=              0.6490
 Quadrupole moment (field-independent basis, Debye-Ang):
   XX=            -76.6454   YY=            -85.0198   ZZ=           -101.8715
   XY=             -0.0001   XZ=              0.0000   YZ=             -0.0480

  Exact polarizability: 359.282  -0.001 190.369   0.000  -0.268 101.158
 Approx polarizability: 501.853  -0.002 301.436   0.000   0.070 151.097

                      1                      2                      3
                      A                      A                      A
 Frequencies --     14.6048                16.9951                32.2227
 Red. masses --      1.0179                 3.6206                 1.0181
 Frc consts  --      0.0001                 0.0006                 0.0006
 IR Inten    --      0.2436                 0.0001                 0.3653

                      4                      5                      6
                      A                      A                      A
 Frequencies --     36.4708                46.7816               128.7037
 Red. masses --      4.4625                 5.2581                 4.8444
 Frc consts  --      0.0035                 0.0068                 0.0473
 IR Inten    --      0.4739                 1.3468                 0.0345

                      7                      8                      9
                      A                      A                      A
 Frequencies --    134.8612               195.1440               224.6865
 Red. masses --      4.6270                 3.0958                 3.0734
 Frc consts  --      0.0496                 0.0695                 0.0914
 IR Inten    --      0.0963                 2.6789                 0.0112

                     10                     11                     12
                      A                      A                      A
 Frequencies --    226.7641               294.9764               299.1267
 Red. masses --      4.1104                 5.2147                 3.1698
 Frc consts  --      0.1245                 0.2673                 0.1671
 IR Inten    --      0.1487                 0.0496                 0.6390

                     13                     14                     15
                      A                      A                      A
 Frequencies --    372.7931               413.1731               430.8985
 Red. masses --      3.6724                 2.9177                 4.6386
 Frc consts  --      0.3007                 0.2935                 0.5074
 IR Inten    --      0.3040                 0.0000                 2.4270

                     16                     17                     18
                      A                      A                      A
 Frequencies --    500.4506               520.7298               522.7084
 Red. masses --      5.1491                 3.3172                 5.4969
 Frc consts  --      0.7598                 0.5300                 0.8849
 IR Inten    --      1.6578                 1.8462                 0.1358

                     19                     20                     21
                      A                      A                      A
 Frequencies --    535.9458               568.2961               573.4935
 Red. masses --      5.3495                 4.0090                 5.3028
 Frc consts  --      0.9053                 0.7628                 1.0276
 IR Inten    --     12.6227                 1.5047                 0.3184

                     22                     23                     24
                      A                      A                      A
 Frequencies --    579.9476               610.4545               635.2066
 Red. masses --      5.7110                 4.6667                 6.6080
 Frc consts  --      1.1317                 1.0246                 1.5709
 IR Inten    --      4.2841                 8.8413                 0.0002

                     25                     26                     27
                      A                      A                      A
 Frequencies --    700.3089               700.8457               772.5257
 Red. masses --      2.1497                 1.9920                 6.2323
 Frc consts  --      0.6212                 0.5765                 2.1914
 IR Inten    --     40.8480                 5.5418                 0.0255

                     28                     29                     30
                      A                      A                      A
 Frequencies --    774.6523               852.7753               868.2216
 Red. masses --      1.8887                 1.2483                 1.4193
 Frc consts  --      0.6678                 0.5349                 0.6303
 IR Inten    --     45.2195                 0.0000                28.8901

                     31                     32                     33
                      A                      A                      A
 Frequencies --    893.2921               912.4175               928.5035
 Red. masses --      1.3141                 1.3894                 1.4260
 Frc consts  --      0.6178                 0.6815                 0.7243
 IR Inten    --      0.0978                 2.1058                 3.2256

                     34                     35                     36
                      A                      A                      A
 Frequencies --    962.7637               967.2161               978.6676
 Red. masses --      3.1948                 3.7871                 1.3639
 Frc consts  --      1.7447                 2.0874                 0.7697
 IR Inten    --      1.9549                 2.9072                 0.0000

                     37                     38                     39
                      A                      A                      A
 Frequencies --   1000.2967              1011.3536              1012.7137
 Red. masses --      1.2784                 6.1369                 6.0714
 Frc consts  --      0.7537                 3.6983                 3.6687
 IR Inten    --      0.0372                 0.0002                 0.0473

                     40                     41                     42
                      A                      A                      A
 Frequencies --   1039.8384              1049.2277              1055.0974
 Red. masses --      1.8273                 1.4904                 1.9922
 Frc consts  --      1.1641                 0.9667                 1.3067
 IR Inten    --      0.4976                 0.0169                 8.3466

                     43                     44                     45
                      A                      A                      A
 Frequencies --   1072.2183              1072.4807              1108.7924
 Red. masses --      1.5096                 1.5332                 1.6229
 Frc consts  --      1.0225                 1.0390                 1.1756
 IR Inten    --      2.5910                 9.5528                 5.5884

                     46                     47                     48
                      A                      A                      A
 Frequencies --   1169.6924              1199.5146              1202.0402
 Red. masses --      1.8147                 1.1079                 1.4874
 Frc consts  --      1.4628                 0.9392                 1.2662
 IR Inten    --      1.2499                 0.0005                 0.1561

                     49                     50                     51
                      A                      A                      A
 Frequencies --   1216.2236              1263.7634              1318.1399
 Red. masses --      1.1430                 3.0074                 2.1430
 Frc consts  --      0.9962                 2.8299                 2.1938
 IR Inten    --      0.0065                 5.3284                 1.2008

                     52                     53                     54
                      A                      A                      A
 Frequencies --   1325.7246              1355.0882              1363.7889
 Red. masses --      3.2588                 2.0460                 1.6944
 Frc consts  --      3.3746                 2.2136                 1.8568
 IR Inten    --      0.0957                 0.7438                 0.3062

                     55                     56                     57
                      A                      A                      A
 Frequencies --   1369.9912              1437.5279              1439.7945
 Red. masses --      4.8012                 1.2376                 1.2702
 Frc consts  --      5.3093                 1.5068                 1.5514
 IR Inten    --      0.5353                 1.0234                 0.0330

                     58                     59                     60
                      A                      A                      A
 Frequencies --   1463.9072              1470.9866              1481.6876
 Red. masses --      2.8661                 2.0697                 2.1913
 Frc consts  --      3.6188                 2.6386                 2.8345
 IR Inten    --      0.7092                 0.0222                 3.5772

                     61                     62                     63
                      A                      A                      A
 Frequencies --   1512.1169              1512.5704              1518.5762
 Red. masses --      1.0541                 1.0550                 1.1234
 Frc consts  --      1.4201                 1.4221                 1.5264
 IR Inten    --     14.0168                 1.2582                 9.9995

                     64                     65                     66
                      A                      A                      A
 Frequencies --   1525.4665              1539.0568              1616.1596
 Red. masses --      1.3565                 2.1544                 4.9683
 Frc consts  --      1.8598                 3.0067                 7.6459
 IR Inten    --      6.2579                43.1876                 1.2125

                     67                     68                     69
                      A                      A                      A
 Frequencies --   1640.0249              1641.4733              1652.2551
 Red. masses --      4.9977                 5.1654                 5.3920
 Frc consts  --      7.9199                 8.2002                 8.6727
 IR Inten    --     32.0586                12.0187                54.8525

                     70                     71                     72
                      A                      A                      A
 Frequencies --   2305.5683              3035.6423              3036.2154
 Red. masses --     11.9975                 1.0389                 1.0391
 Frc consts  --     37.5749                 5.6408                 5.6436
 IR Inten    --      2.2064                47.3665                33.2595

                     73                     74                     75
                      A                      A                      A
 Frequencies --   3090.6296              3090.7191              3115.8156
 Red. masses --      1.0977                 1.0977                 1.1022
 Frc consts  --      6.1775                 6.1782                 6.3045
 IR Inten    --      3.8340                34.8129                13.7343

                     76                     77                     78
                      A                      A                      A
 Frequencies --   3116.0496              3160.2841              3178.4631
 Red. masses --      1.1021                 1.0898                 1.0855
 Frc consts  --      6.3049                 6.4127                 6.4611
 IR Inten    --     18.1109                23.2320                 2.5947

                     79                     80                     81
                      A                      A                      A
 Frequencies --   3186.9349              3190.7589              3191.9192
 Red. masses --      1.0886                 1.0906                 1.0912
 Frc consts  --      6.5141                 6.5421                 6.5501
 IR Inten    --      6.5541                14.3140                 0.7852

                     82                     83                     84
                      A                      A                      A
 Frequencies --   3198.9651              3206.2107              3210.9263
 Red. masses --      1.0920                 1.0941                 1.0974
 Frc consts  --      6.5838                 6.6268                 6.6660
 IR Inten    --     22.7870                25.7921                13.1296

 - Thermochemistry -
 -------------------
 Temperature   298.150 Kelvin.  Pressure   1.00000 Atm.
 Atom     1 has atomic number  6 and mass  12.00000

 Molecular mass:   206.10955 amu.
 Principal axes and moments of inertia in atomic units:
                           1         2         3
     Eigenvalues --  1347.610709430.02753**********
           X            1.00000   0.00000   0.00000
           Y            0.00000   1.00000  -0.00041
           Z            0.00000   0.00041   1.00000
 This molecule is an asymmetric top.
 Rotational symmetry number  1.
 Warning -- assumption of classical behavior for rotation
           may cause significant error
 Rotational temperatures (Kelvin)      0.06427     0.00918     0.00805
 Rotational constants (GHZ):           1.33922     0.19138     0.16780
 Zero-point vibrational energy     647181.6 (Joules/Mol)
                                  154.68012 (Kcal/Mol)
 Warning -- explicit consideration of  23 degrees of freedom as
           vibrations may cause significant error
 Vibrational temperatures:     21.01    24.45    46.36    52.47    67.31
          (Kelvin)            185.18   194.04   280.77   323.27   326.26
                              424.41   430.38   536.37   594.46   619.97
                              720.04   749.21   752.06   771.11   817.65
                              825.13   834.42   878.31   913.92  1007.59
                             1008.36  1111.49  1114.55  1226.95  1249.18
                             1285.25  1312.77  1335.91  1385.20  1391.61
                             1408.08  1439.20  1455.11  1457.07  1496.10
                             1509.60  1518.05  1542.68  1543.06  1595.31
                             1682.93  1725.83  1729.47  1749.87  1818.27
                             1896.51  1907.42  1949.67  1962.19  1971.11
                             2068.28  2071.54  2106.24  2116.42  2131.82
                             2175.60  2176.25  2184.89  2194.81  2214.36
                             2325.29  2359.63  2361.71  2377.23  3317.20
                             4367.61  4368.44  4446.73  4446.86  4482.96
                             4483.30  4546.94  4573.10  4585.29  4590.79
                             4592.46  4602.60  4613.02  4619.81

 Zero-point correction=                           0.246498 (Hartree/Particle)
 Thermal correction to Energy=                    0.261382
 Thermal correction to Enthalpy=                  0.262327
 Thermal correction to Gibbs Free Energy=         0.200065
 Sum of electronic and zero-point Energies=           -617.893242
 Sum of electronic and thermal Energies=              -617.878358
 Sum of electronic and thermal Enthalpies=            -617.877414
 Sum of electronic and thermal Free Energies=         -617.939675

                     E (Thermal)             CV                S
                      KCal/Mol        Cal/Mol-Kelvin    Cal/Mol-Kelvin
 Total                  164.020             55.377            131.040
 Electronic               0.000              0.000              0.000
 Translational            0.889              2.981             41.874
 Rotational               0.889              2.981             33.280
 Vibrational            162.242             49.415             55.886
 Vibration     1          0.593              1.986              7.259
 Vibration     2          0.593              1.986              6.958
 Vibration     3          0.594              1.983              5.688
 Vibration     4          0.594              1.982              5.442
 Vibration     5          0.595              1.979              4.949
 Vibration     6          0.611              1.925              2.965
 Vibration     7          0.613              1.919              2.876
 Vibration     8          0.636              1.847              2.178
 Vibration     9          0.649              1.803              1.921
 Vibration    10          0.650              1.800              1.904
 Vibration    11          0.689              1.683              1.445
 Vibration    12          0.692              1.675              1.422
 Vibration    13          0.744              1.528              1.068
 Vibration    14          0.777              1.442              0.915
 Vibration    15          0.792              1.403              0.856
 Vibration    16          0.856              1.249              0.657
 Vibration    17          0.876              1.204              0.608
 Vibration    18          0.878              1.200              0.604
 Vibration    19          0.891              1.171              0.574
 Vibration    20          0.924              1.100              0.508
 Vibration    21          0.930              1.089              0.498
 Vibration    22          0.937              1.075              0.485
 Vibration    23          0.970              1.010              0.432

 Optimization completed.
    -- Stationary point found.
 Normal termination of Gaussian 16 at Sat Sep 16 12:25:31 2023.
