 Gaussian 16, Revision B.01,
 Gaussian 16:  EM64L-G16RevB.01 20-Dec-2017

 ----------------------------------------------------------------------
 # opt freq b3lyp/6-31+g(d) geom=connectivity empiricaldispersion=gd3 v
 olume
 ----------------------------------------------------------------------

 -------------------
 Title Card Required
 -------------------
 Symbolic Z-matrix:
 Charge =  0 Multiplicity = 1

 SCF Done:  E(RB3LYP) =  -539.497178053     A.U. after   12 cycles
 Optimization completed.
    -- Stationary point found.
 Normal termination of Gaussian 16 at Sun Sep 17 15:03:58 2023.

 ---------------------------------------------------------------------
 #N Geom=AllCheck Guess=TCheck SCRF=Check GenChk RB3LYP/6-31+G(d) Freq
 ---------------------------------------------------------------------

 Structure from the checkpoint file:  "MOLECULE_3 .chk"
 -------------------
 Title Card Required
 -------------------
 Charge =  0 Multiplicity = 1

                         Standard orientation:
 ---------------------------------------------------------------------
 Center     Atomic      Atomic             Coordinates (Angstroms)
 Number     Number       Type             X           Y           Z
 ---------------------------------------------------------------------
      1          6           0       -4.145937   -1.210292    0.000058
      2          6           0       -2.751569   -1.215083    0.000034
      3          6           0       -2.034085   -0.000021   -0.000020
      4          6           0       -2.751525    1.215070   -0.000044
      5          6           0       -4.145894    1.210332   -0.000031
      6          6           0       -4.848636    0.000033    0.000024
      7          1           0       -4.686239   -2.153514    0.000094
      8          1           0       -2.204243   -2.153252    0.000051
      9          1           0       -2.204165    2.153219   -0.000079
     10          1           0       -4.686160    2.153574   -0.000055
     11          1           0       -5.935461    0.000051    0.000040
     12          6           0       -0.608689   -0.000041   -0.000041
     13          6           0        0.608691   -0.000076   -0.000025
     14          6           0        2.034084   -0.000056   -0.000006
     15          6           0        2.751504    1.215060    0.000037
     16          6           0        2.751587   -1.215092   -0.000043
     17          6           0        4.145865    1.210350    0.000055
     18          1           0        2.204108    2.153189    0.000054
     19          6           0        4.145967   -1.210274   -0.000033
     20          1           0        2.204293   -2.153280   -0.000076
     21          6           0        4.848636    0.000055    0.000021
     22          1           0        4.686128    2.153594    0.000087
     23          1           0        4.686275   -2.153493   -0.000056
     24          1           0        5.935464    0.000112    0.000029
 ---------------------------------------------------------------------

 SCF Done:  E(RB3LYP) =  -539.497178053     A.U. after    1 cycles

 The electronic state is 1-A.
 Alpha  occ. eigenvalues --  -10.22552 -10.22552 -10.20581 -10.20581 -10.20581
 Alpha  occ. eigenvalues --  -10.20581 -10.20469 -10.20469 -10.20411 -10.20411
 Alpha  occ. eigenvalues --  -10.20387 -10.20387 -10.19869 -10.19650  -0.87116
 Alpha  occ. eigenvalues --   -0.86828  -0.79732  -0.77413  -0.75767  -0.75753
 Alpha  occ. eigenvalues --   -0.72173  -0.64227  -0.61713  -0.61589  -0.61430
 Alpha  occ. eigenvalues --   -0.55272  -0.53649  -0.49543  -0.48403  -0.46581
 Alpha  occ. eigenvalues --   -0.46134  -0.44720  -0.44032  -0.43284  -0.43257
 Alpha  occ. eigenvalues --   -0.39211  -0.38070  -0.37057  -0.36608  -0.36049
 Alpha  occ. eigenvalues --   -0.35720  -0.32393  -0.27816  -0.27622  -0.26432
 Alpha  occ. eigenvalues --   -0.26419  -0.21987
 Alpha virt. eigenvalues --   -0.05936  -0.02045  -0.01859  -0.00736   0.00044
 Alpha virt. eigenvalues --    0.00805   0.02007   0.02401   0.02680   0.04065
 Alpha virt. eigenvalues --    0.04203   0.04459   0.05166   0.05266   0.05873

 Mulliken charges:
               1
     1  C   -0.164457
     2  C   -0.249242
     3  C    0.164226
     4  C   -0.249346
     5  C   -0.164485
     6  C   -0.219652
     7  H    0.182293
     8  H    0.192270
     9  H    0.192269
    10  H    0.182293
    11  H    0.181098
    12  C   -0.047270
    13  C   -0.047270
    14  C    0.164228
    15  C   -0.249310
    16  C   -0.249277
    17  C   -0.164510
    18  H    0.192271
    19  C   -0.164437
    20  H    0.192269
    21  C   -0.219647
    22  H    0.182294
    23  H    0.182293
    24  H    0.181098
 Sum of Mulliken charges =   0.00000

 Dipole moment (field-independent basis, Debye):
    X=              0.0000    Y=              0.0001    Z=              0.0000  Tot=              0.0001
 Quadrupole moment (field-independent basis, Debye-Ang):
   XX=            -64.9796   YY=            -72.2634   ZZ=            -89.3774
   XY=              0.0000   XZ=              0.0000   YZ=              0.0000

  Exact polarizability: 326.856  -0.001 155.819   0.000   0.000  83.559
 Approx polarizability: 467.316  -0.003 263.834   0.001   0.000 122.118

                      1                      2                      3
                      A                      A                      A
 Frequencies --     25.6775                46.3158                53.4228
 Red. masses --      3.6414                 4.7658                 5.4659
 Frc consts  --      0.0014                 0.0060                 0.0092
 IR Inten    --      0.0000                 0.5664                 1.3172

                      4                      5                      6
                      A                      A                      A
 Frequencies --    144.1486               146.8228               259.9374
 Red. masses --      4.8065                 5.0476                 6.4338
 Frc consts  --      0.0588                 0.0641                 0.2561
 IR Inten    --      0.0000                 0.0000                 0.0000

                      7                      8                      9
                      A                      A                      A
 Frequencies --    295.1110               408.5712               411.2995
 Red. masses --      5.0043                 4.8028                 2.9150
 Frc consts  --      0.2568                 0.4724                 0.2905
 IR Inten    --      0.2527                 0.0000                 0.0000

                     10                     11                     12
                      A                      A                      A
 Frequencies --    413.6182               476.6200               535.4302
 Red. masses --      2.9181                 6.8699                 3.2908
 Frc consts  --      0.2941                 0.9195                 0.5559
 IR Inten    --      0.0000                 1.5511                17.2355

                     13                     14                     15
                      A                      A                      A
 Frequencies --    546.4222               547.0490               560.5277
 Red. masses --      7.8829                 8.2017                 4.1546
 Frc consts  --      1.3867                 1.4461                 0.7691
 IR Inten    --     16.2759                 0.0000                 0.0000

                     16                     17                     18
                      A                      A                      A
 Frequencies --    633.3277               636.2382               698.7591
 Red. masses --      6.5342                 6.6757                 2.0357
 Frc consts  --      1.5442                 1.5922                 0.5856
 IR Inten    --      0.0005                 0.0000                 0.0001

                     19                     20                     21
                      A                      A                      A
 Frequencies --    699.7729               714.3556               765.4068
 Red. masses --      1.9600                 6.1903                 1.7044
 Frc consts  --      0.5655                 1.8612                 0.5883
 IR Inten    --     68.9691                 0.0000                 0.0000

                     22                     23                     24
                      A                      A                      A
 Frequencies --    769.5418               852.5774               852.9171
 Red. masses --      1.7485                 1.2492                 1.2474
 Frc consts  --      0.6101                 0.5350                 0.5347
 IR Inten    --     99.8457                 0.0000                 0.0000

                     25                     26                     27
                      A                      A                      A
 Frequencies --    856.6725               926.9358               928.6852
 Red. masses --      5.9146                 1.4005                 1.4109
 Frc consts  --      2.5574                 0.7090                 0.7169
 IR Inten    --      1.1188                 0.0000                 6.2076

                     28                     29                     30
                      A                      A                      A
 Frequencies --    978.7166               978.8360              1000.8099
 Red. masses --      1.3643                 1.3639                 1.2799
 Frc consts  --      0.7700                 0.7699                 0.7553
 IR Inten    --      0.0000                 0.0000                 0.0001

                     31                     32                     33
                      A                      A                      A
 Frequencies --   1000.8589              1011.8592              1012.1024
 Red. masses --      1.2803                 6.2477                 6.2852
 Frc consts  --      0.7556                 3.7688                 3.7933
 IR Inten    --      0.0620                 0.0000                 0.0131

                     34                     35                     36
                      A                      A                      A
 Frequencies --   1049.8619              1052.9739              1107.8656
 Red. masses --      2.4331                 2.1225                 1.6299
 Frc consts  --      1.5801                 1.3865                 1.1787
 IR Inten    --      0.0000                 9.1416                 0.0000

                     37                     38                     39
                      A                      A                      A
 Frequencies --   1109.1737              1163.9703              1199.3286
 Red. masses --      1.6194                 3.4453                 1.1094
 Frc consts  --      1.1738                 2.7502                 0.9402
 IR Inten    --     11.0549                 0.0000                 0.0010

                     40                     41                     42
                      A                      A                      A
 Frequencies --   1199.3309              1216.0025              1216.7437
 Red. masses --      1.1095                 1.1379                 1.1648
 Frc consts  --      0.9403                 0.9913                 1.0160
 IR Inten    --      0.0018                 0.0822                 0.0000

                     43                     44                     45
                      A                      A                      A
 Frequencies --   1322.6364              1326.1114              1346.4204
 Red. masses --      3.2974                 3.5034                 3.7270
 Frc consts  --      3.3986                 3.6299                 3.9808
 IR Inten    --      0.0000                 0.0694                 5.8708

                     46                     47                     48
                      A                      A                      A
 Frequencies --   1362.8719              1363.3558              1479.6482
 Red. masses --      1.6962                 1.6441                 2.1788
 Frc consts  --      1.8563                 1.8005                 2.8105
 IR Inten    --      0.0000                 0.7176                 0.0000

                     49                     50                     51
                      A                      A                      A
 Frequencies --   1482.0043              1525.4610              1543.6655
 Red. masses --      2.1939                 2.0658                 2.4761
 Frc consts  --      2.8389                 2.8323                 3.4764
 IR Inten    --      7.1582                 0.0000                43.2394

                     52                     53                     54
                      A                      A                      A
 Frequencies --   1614.4132              1615.8950              1643.5931
 Red. masses --      4.9204                 4.9863                 5.2067
 Frc consts  --      7.5559                 7.6710                 8.2871
 IR Inten    --      0.0000                 2.9411                 0.0000

                     55                     56                     57
                      A                      A                      A
 Frequencies --   1652.8018              2306.4124              3179.3446
 Red. masses --      5.4260                11.9969                 1.0855
 Frc consts  --      8.7332                37.6005                 6.4649
 IR Inten    --     32.7206                 0.0000                 4.5579

                     58                     59                     60
                      A                      A                      A
 Frequencies --   3179.4006              3187.8310              3187.8802
 Red. masses --      1.0855                 1.0885                 1.0886
 Frc consts  --      6.4652                 6.5175                 6.5180
 IR Inten    --      0.0524                 0.0128                11.8244

                     61                     62                     63
                      A                      A                      A
 Frequencies --   3199.5381              3199.6406              3206.7027
 Red. masses --      1.0919                 1.0919                 1.0941
 Frc consts  --      6.5861                 6.5864                 6.6289
 IR Inten    --     42.8629                 0.2479                 0.0075

                     64                     65                     66
                      A                      A                      A
 Frequencies --   3206.9009              3211.4498              3211.6698
 Red. masses --      1.0942                 1.0974                 1.0974
 Frc consts  --      6.6299                 6.6684                 6.6693
 IR Inten    --     50.3753                25.2511                 0.0104

 - Thermochemistry -
 -------------------
 Temperature   298.150 Kelvin.  Pressure   1.00000 Atm.
 Atom     1 has atomic number  6 and mass  12.00000

 Molecular mass:   178.07825 amu.
 Principal axes and moments of inertia in atomic units:
                           1         2         3
     Eigenvalues --   637.676877284.981867922.65872
           X            1.00000   0.00000   0.00000
           Y            0.00000   1.00000   0.00000
           Z            0.00000   0.00000   1.00000
 This molecule is an asymmetric top.
 Rotational symmetry number  1.
 Warning -- assumption of classical behavior for rotation
           may cause significant error
 Rotational temperatures (Kelvin)      0.13583     0.01189     0.01093
 Rotational constants (GHZ):           2.83018     0.24773     0.22779
 Zero-point vibrational energy     502791.9 (Joules/Mol)
                                  120.17016 (Kcal/Mol)
 Warning -- explicit consideration of  15 degrees of freedom as
           vibrations may cause significant error
 Vibrational temperatures:     36.94    66.64    76.86   207.40   211.25
          (Kelvin)            373.99   424.60   587.84   591.77   595.10
                              685.75   770.36   786.18   787.08   806.47
                              911.22   915.40  1005.36  1006.82  1027.80
                             1101.25  1107.20  1226.67  1227.16  1232.56
                             1333.65  1336.17  1408.15  1408.33  1439.94
                             1440.01  1455.84  1456.19  1510.52  1514.99
                             1593.97  1595.85  1674.69  1725.57  1725.57
                             1749.56  1750.62  1902.98  1907.98  1937.20
                             1960.87  1961.56  2128.88  2132.27  2194.80
                             2220.99  2322.78  2324.91  2364.76  2378.01
                             3318.41  4574.37  4574.45  4586.58  4586.65
                             4603.42  4603.57  4613.73  4614.02  4620.56
                             4620.88

 Zero-point correction=                           0.191503 (Hartree/Particle)
 Thermal correction to Energy=                    0.202575
 Thermal correction to Enthalpy=                  0.203519
 Thermal correction to Gibbs Free Energy=         0.152389
 Sum of electronic and zero-point Energies=           -539.305675
 Sum of electronic and thermal Energies=              -539.294603
 Sum of electronic and thermal Enthalpies=            -539.293659
 Sum of electronic and thermal Free Energies=         -539.344789

                     E (Thermal)             CV                S
                      KCal/Mol        Cal/Mol-Kelvin    Cal/Mol-Kelvin
 Total                  127.118             43.415            107.612
 Electronic               0.000              0.000              0.000
 Translational            0.889              2.981             41.438
 Rotational               0.889              2.981             31.976
 Vibrational            125.340             37.454             34.198
 Vibration     1          0.593              1.985              6.138
 Vibration     2          0.595              1.979              4.969
 Vibration     3          0.596              1.976              4.686
 Vibration     4          0.616              1.909              2.748
 Vibration     5          0.617              1.906              2.713
 Vibration     6          0.668              1.746              1.662
 Vibration     7          0.689              1.683              1.444
 Vibration     8          0.773              1.452              0.932
 Vibration     9          0.775              1.446              0.922
 Vibration    10          0.777              1.441              0.914
 Vibration    11          0.833              1.302              0.719
 Vibration    12          0.890              1.172              0.575
 Vibration    13          0.902              1.148              0.552
 Vibration    14          0.902              1.146              0.550
 Vibration    15          0.916              1.117              0.523

 Optimization completed.
    -- Stationary point found.
 Normal termination of Gaussian 16 at Sun Sep 17 15:06:49 2023.
