 Gaussian 16, Revision B.01,
 Gaussian 16:  EM64L-G16RevB.01 20-Dec-2017

 ---------------------------------------------------------
 # opt freq b3lyp/6-31+g(d) empiricaldispersion=gd3 volume
 ---------------------------------------------------------

 -------------------
 Title Card Required
 -------------------
 Symbolic Z-matrix:
 Charge =  0 Multiplicity = 1

 SCF Done:  E(RB3LYP) =  -542.969156054     A.U. after   15 cycles
 SCF Done:  E(RB3LYP) =  -543.050525745     A.U. after   15 cycles
 SCF Done:  E(RB3LYP) =  -543.077750962     A.U. after   15 cycles
 SCF Done:  E(RB3LYP) =  -543.088008591     A.U. after   14 cycles
 SCF Done:  E(RB3LYP) =  -543.075163857     A.U. after   17 cycles
 SCF Done:  E(RB3LYP) =  -543.086014022     A.U. after   15 cycles
 SCF Done:  E(RB3LYP) =  -543.089697264     A.U. after   14 cycles
 SCF Done:  E(RB3LYP) =  -543.093475591     A.U. after   15 cycles
 SCF Done:  E(RB3LYP) =  -543.095682010     A.U. after   15 cycles
 SCF Done:  E(RB3LYP) =  -543.090984578     A.U. after   15 cycles
 SCF Done:  E(RB3LYP) =  -543.105393222     A.U. after   12 cycles
 SCF Done:  E(RB3LYP) =  -543.105444114     A.U. after   12 cycles
 SCF Done:  E(RB3LYP) =  -543.105471013     A.U. after   12 cycles
 SCF Done:  E(RB3LYP) =  -543.105490290     A.U. after   12 cycles
 SCF Done:  E(RB3LYP) =  -543.105500236     A.U. after   12 cycles
 SCF Done:  E(RB3LYP) =  -543.105500610     A.U. after   11 cycles
 SCF Done:  E(RB3LYP) =  -543.105500657     A.U. after    9 cycles
 SCF Done:  E(RB3LYP) =  -543.105500668     A.U. after    9 cycles
 SCF Done:  E(RB3LYP) =  -543.105500672     A.U. after    9 cycles
 Optimization completed.
    -- Stationary point found.
 Normal termination of Gaussian 16 at Sun Sep 17 17:15:19 2023.

 ---------------------------------------------------------------------
 #N Geom=AllCheck Guess=TCheck SCRF=Check GenChk RB3LYP/6-31+G(d) Freq
 ---------------------------------------------------------------------

 Structure from the checkpoint file:  "molecule_20.chk"
 -------------------
 Title Card Required
 -------------------
 Charge =  0 Multiplicity = 1

                         Standard orientation:
 ---------------------------------------------------------------------
 Center     Atomic      Atomic             Coordinates (Angstroms)
 Number     Number       Type             X           Y           Z
 ---------------------------------------------------------------------
      1          6           0        2.203229   -2.654824   -0.672934
      2          6           0        2.420235   -1.613994    0.439383
      3          6           0        1.933588   -0.228075    0.040950
      4          6           0        2.732954    0.804750   -0.316374
      5          1           0        2.524367   -3.650269   -0.343324
      6          1           0        1.876723   -1.927852    1.339956
      7          1           0        2.246254    1.744398   -0.580379
      8          6           0        0.514673   -0.063042    0.026201
      9          6           0       -0.701413    0.012810    0.033705
     10          6           0       -2.122210    0.126836    0.031920
     11          6           0       -2.930303   -0.957879    0.433476
     12          6           0       -2.746907    1.326150   -0.371100
     13          6           0       -4.319712   -0.842981    0.429670
     14          1           0       -2.455865   -1.883741    0.746015
     15          6           0       -4.136989    1.432641   -0.371393
     16          1           0       -2.130465    2.164975   -0.681241
     17          6           0       -4.929256    0.350737    0.028113
     18          1           0       -4.929206   -1.687426    0.741553
     19          1           0       -4.604079    2.363038   -0.684495
     20          1           0       -6.012684    0.437218    0.026637
     21          1           0        3.480142   -1.578570    0.710674
     22          1           0        1.144968   -2.712005   -0.952401
     23          1           0        2.774017   -2.389155   -1.570598
     24          6           0        4.234015    0.831414   -0.374327
     25          1           0        4.659275   -0.167386   -0.230639
     26          1           0        4.538699    1.153969   -1.381453
     27          6           0        4.835954    1.804663    0.658657
     28          1           0        5.927225    1.854071    0.560989
     29          1           0        4.437980    2.818020    0.523592
     30          1           0        4.595507    1.485487    1.679421
 ---------------------------------------------------------------------

 SCF Done:  E(RB3LYP) =  -543.105500672     A.U. after    1 cycles

 The electronic state is 1-A.
 Alpha  occ. eigenvalues --  -10.22149 -10.21446 -10.20187 -10.20173 -10.20108
 Alpha  occ. eigenvalues --  -10.20069 -10.20034 -10.19845 -10.19667 -10.19518
 Alpha  occ. eigenvalues --  -10.19157 -10.18922 -10.18524 -10.18069  -0.86611
 Alpha  occ. eigenvalues --   -0.83405  -0.78612  -0.77556  -0.75407  -0.74034
 Alpha  occ. eigenvalues --   -0.71064  -0.65184  -0.62682  -0.61452  -0.61290
 Alpha  occ. eigenvalues --   -0.56169  -0.53611  -0.50386  -0.48476  -0.46110
 Alpha  occ. eigenvalues --   -0.45636  -0.44630  -0.44082  -0.42920  -0.42655
 Alpha  occ. eigenvalues --   -0.41362  -0.38863  -0.38246  -0.37967  -0.36946
 Alpha  occ. eigenvalues --   -0.36513  -0.35525  -0.35338  -0.34767  -0.33644
 Alpha  occ. eigenvalues --   -0.32177  -0.27314  -0.26841  -0.26088  -0.21254
 Alpha virt. eigenvalues --   -0.05013  -0.01626  -0.00457   0.00523   0.01290
 Alpha virt. eigenvalues --    0.01715   0.02233   0.02653   0.02985   0.03788
 Alpha virt. eigenvalues --    0.04193   0.04473   0.05357   0.05793   0.05987

 Mulliken charges:
               1
     1  C   -0.762941
     2  C   -0.259898
     3  C    0.793567
     4  C   -0.869004
     5  H    0.198919
     6  H    0.211915
     7  H    0.188028
     8  C   -0.194523
     9  C   -0.457632
    10  C    0.752125
    11  C   -0.529877
    12  C   -0.384664
    13  C   -0.042491
    14  H    0.191096
    15  C   -0.114120
    16  H    0.192161
    17  C   -0.174635
    18  H    0.181374
    19  H    0.181440
    20  H    0.179831
    21  H    0.187178
    22  H    0.219016
    23  H    0.207597
    24  C   -0.187344
    25  H    0.188977
    26  H    0.208145
    27  C   -0.721277
    28  H    0.199305
    29  H    0.206968
    30  H    0.210765
 Sum of Mulliken charges =   0.00000

 Dipole moment (field-independent basis, Debye):
    X=              0.6258    Y=             -0.0714    Z=             -0.0338  Tot=              0.6308
 Quadrupole moment (field-independent basis, Debye-Ang):
   XX=            -72.2311   YY=            -80.7263   ZZ=            -90.0670
   XY=             -0.1903   XZ=             -0.5746   YZ=             -3.8863

  Exact polarizability: 301.586  10.820 159.178  -4.347 -11.899 107.315
 Approx polarizability: 419.444  20.146 238.972 -12.212 -29.793 159.065

                      1                      2                      3
                      A                      A                      A
 Frequencies --     18.6367                32.6641                40.1779
 Red. masses --      3.4585                 3.0843                 2.7329
 Frc consts  --      0.0007                 0.0019                 0.0026
 IR Inten    --      0.0020                 0.1583                 0.0552

                      4                      5                      6
                      A                      A                      A
 Frequencies --     43.8876                55.3397               117.7234
 Red. masses --      3.2698                 3.1068                 4.1437
 Frc consts  --      0.0037                 0.0056                 0.0338
 IR Inten    --      0.7933                 0.9751                 0.2972

                      7                      8                      9
                      A                      A                      A
 Frequencies --    145.7297               193.0363               217.1374
 Red. masses --      3.1730                 3.6463                 1.1495
 Frc consts  --      0.0397                 0.0801                 0.0319
 IR Inten    --      0.1718                 0.0561                 0.0074

                     10                     11                     12
                      A                      A                      A
 Frequencies --    243.0612               278.9114               300.0573
 Red. masses --      1.1874                 3.3789                 3.1363
 Frc consts  --      0.0413                 0.1549                 0.1664
 IR Inten    --      0.0095                 0.1569                 0.4753

                     13                     14                     15
                      A                      A                      A
 Frequencies --    345.7523               398.5915               414.0552
 Red. masses --      2.3581                 3.5227                 2.9223
 Frc consts  --      0.1661                 0.3297                 0.2952
 IR Inten    --      0.6322                 0.9035                 0.0090

                     16                     17                     18
                      A                      A                      A
 Frequencies --    462.4334               497.3069               534.4089
 Red. masses --      3.7628                 4.7600                 3.7351
 Frc consts  --      0.4741                 0.6936                 0.6285
 IR Inten    --      1.7685                 2.4738                 4.7588

                     19                     20                     21
                      A                      A                      A
 Frequencies --    569.8775               584.1384               635.2150
 Red. masses --      5.0562                 3.9427                 6.5488
 Frc consts  --      0.9675                 0.7926                 1.5569
 IR Inten    --      6.2017                10.4775                 0.0527

                     22                     23                     24
                      A                      A                      A
 Frequencies --    646.5036               696.8856               700.5960
 Red. masses --      4.7212                 3.1659                 1.8983
 Frc consts  --      1.1626                 0.9059                 0.5490
 IR Inten    --      1.3170                 5.0284                36.0398

                     25                     26                     27
                      A                      A                      A
 Frequencies --    772.9964               790.7429               818.2033
 Red. masses --      1.8617                 1.4141                 1.9078
 Frc consts  --      0.6554                 0.5210                 0.7525
 IR Inten    --     45.9830                 1.0568                 1.2963

                     28                     29                     30
                      A                      A                      A
 Frequencies --    829.2008               852.6046               897.7171
 Red. masses --      1.4323                 1.2483                 1.4082
 Frc consts  --      0.5802                 0.5346                 0.6686
 IR Inten    --      3.2874                 0.0004                14.4087

                     31                     32                     33
                      A                      A                      A
 Frequencies --    927.1467               929.2088               978.1546
 Red. masses --      1.4251                 1.9873                 1.3636
 Frc consts  --      0.7217                 1.0110                 0.7687
 IR Inten    --      2.9199                 5.0030                 0.0017

                     34                     35                     36
                      A                      A                      A
 Frequencies --    982.9988               999.7079              1012.2500
 Red. masses --      2.3378                 1.2779                 6.1208
 Frc consts  --      1.3309                 0.7525                 3.6952
 IR Inten    --      2.2131                 0.0353                 0.1293

                     37                     38                     39
                      A                      A                      A
 Frequencies --   1033.7514              1050.4201              1063.9855
 Red. masses --      2.4352                 2.3923                 2.0440
 Frc consts  --      1.5333                 1.5552                 1.3634
 IR Inten    --      2.9908                 8.9749                 2.7700

                     40                     41                     42
                      A                      A                      A
 Frequencies --   1094.7532              1104.0919              1108.4830
 Red. masses --      1.6226                 1.6384                 1.6234
 Frc consts  --      1.1458                 1.1767                 1.1753
 IR Inten    --      2.9455                 5.5637                 5.5844

                     43                     44                     45
                      A                      A                      A
 Frequencies --   1145.1011              1199.2245              1203.2286
 Red. masses --      1.9240                 1.1075                 2.3500
 Frc consts  --      1.4864                 0.9384                 2.0045
 IR Inten    --      1.1874                 0.0004                 2.0794

                     46                     47                     48
                      A                      A                      A
 Frequencies --   1216.6505              1291.1416              1296.4144
 Red. masses --      1.1825                 1.3886                 1.2059
 Frc consts  --      1.0313                 1.3639                 1.1942
 IR Inten    --      0.2848                 0.1327                 0.1633

                     49                     50                     51
                      A                      A                      A
 Frequencies --   1324.8010              1333.0910              1351.0018
 Red. masses --      3.2920                 1.5018                 1.6935
 Frc consts  --      3.4042                 1.5725                 1.8212
 IR Inten    --      0.0141                22.0487                15.9551

                     52                     53                     54
                      A                      A                      A
 Frequencies --   1363.5716              1364.9138              1398.4330
 Red. masses --      1.6947                 1.6478                 1.5113
 Frc consts  --      1.8565                 1.8087                 1.7414
 IR Inten    --      0.2341                 0.5902                 1.9111

                     55                     56                     57
                      A                      A                      A
 Frequencies --   1429.7426              1432.0304              1481.4508
 Red. masses --      1.2110                 1.2210                 2.1898
 Frc consts  --      1.4585                 1.4752                 2.8316
 IR Inten    --      0.1342                 7.7835                 2.9781

                     58                     59                     60
                      A                      A                      A
 Frequencies --   1503.5716              1517.7858              1519.4400
 Red. masses --      1.0807                 1.0405                 1.0402
 Frc consts  --      1.4395                 1.4122                 1.4150
 IR Inten    --      5.6013                 6.0545                 8.0374

                     61                     62                     63
                      A                      A                      A
 Frequencies --   1520.9857              1526.4538              1534.3094
 Red. masses --      1.0428                 1.0618                 1.6964
 Frc consts  --      1.4214                 1.4577                 2.3529
 IR Inten    --      0.2620                 2.6514                15.1021

                     64                     65                     66
                      A                      A                      A
 Frequencies --   1535.7474              1615.7419              1647.6056
 Red. masses --      1.3037                 4.9663                 5.3133
 Frc consts  --      1.8117                 7.6388                 8.4982
 IR Inten    --     20.6400                 1.7151                21.8334

                     67                     68                     69
                      A                      A                      A
 Frequencies --   1684.7736              2296.0600              3017.2048
 Red. masses --      6.4258                11.9908                 1.0707
 Frc consts  --     10.7463                37.2446                 5.7430
 IR Inten    --      0.0232                 9.2285                35.1566

                     70                     71                     72
                      A                      A                      A
 Frequencies --   3037.8137              3040.5122              3047.1176
 Red. masses --      1.0345                 1.0345                 1.0664
 Frc consts  --      5.6247                 5.6349                 5.8336
 IR Inten    --     59.9911                33.7970                18.8436

                     73                     74                     75
                      A                      A                      A
 Frequencies --   3081.7731              3094.4751              3106.6995
 Red. masses --      1.0949                 1.0955                 1.1002
 Frc consts  --      6.1267                 6.1808                 6.2565
 IR Inten    --      4.2376                 1.2405                48.8243

                     76                     77                     78
                      A                      A                      A
 Frequencies --   3107.4384              3112.1555              3118.9293
 Red. masses --      1.1024                 1.1025                 1.1014
 Frc consts  --      6.2716                 6.2917                 6.3124
 IR Inten    --     41.6212                41.8689                61.7139

                     79                     80                     81
                      A                      A                      A
 Frequencies --   3147.8743              3177.7520              3186.0742
 Red. masses --      1.0886                 1.0854                 1.0885
 Frc consts  --      6.3555                 6.4580                 6.5103
 IR Inten    --     22.1394                 2.5073                 6.3054

                     82                     83                     84
                      A                      A                      A
 Frequencies --   3198.3238              3205.3826              3210.3095
 Red. masses --      1.0919                 1.0941                 1.0974
 Frc consts  --      6.5808                 6.6234                 6.6633
 IR Inten    --     22.6697                26.9485                11.7605

 - Thermochemistry -
 -------------------
 Temperature   298.150 Kelvin.  Pressure   1.00000 Atm.
 Atom     1 has atomic number  6 and mass  12.00000

 Molecular mass:   184.12520 amu.
 Principal axes and moments of inertia in atomic units:
                           1         2         3
     Eigenvalues --  1227.932537215.081588176.45140
           X            0.99999   0.00312   0.00120
           Y           -0.00312   0.99999   0.00220
           Z           -0.00119  -0.00220   1.00000
 This molecule is an asymmetric top.
 Rotational symmetry number  1.
 Warning -- assumption of classical behavior for rotation
           may cause significant error
 Rotational temperatures (Kelvin)      0.07054     0.01200     0.01059
 Rotational constants (GHZ):           1.46974     0.25013     0.22072
 Zero-point vibrational energy     676139.2 (Joules/Mol)
                                  161.60115 (Kcal/Mol)
 Warning -- explicit consideration of  20 degrees of freedom as
           vibrations may cause significant error
 Vibrational temperatures:     26.81    47.00    57.81    63.14    79.62
          (Kelvin)            169.38   209.67   277.74   312.41   349.71
                              401.29   431.72   497.46   573.48   595.73
                              665.34   715.51   768.90   819.93   840.44
                              913.93   930.17  1002.66  1008.00  1112.17
                             1137.70  1177.21  1193.03  1226.71  1291.61
                             1333.96  1336.92  1407.35  1414.32  1438.36
                             1456.40  1487.34  1511.32  1530.84  1575.11
                             1588.54  1594.86  1647.55  1725.42  1731.18
                             1750.49  1857.66  1865.25  1906.09  1918.02
                             1943.79  1961.88  1963.81  2012.03  2057.08
                             2060.37  2131.48  2163.30  2183.76  2186.14
                             2188.36  2196.23  2207.53  2209.60  2324.69
                             2370.54  2424.01  3303.52  4341.08  4370.74
                             4374.62  4384.12  4433.98  4452.26  4469.85
                             4470.91  4477.70  4487.44  4529.09  4572.08
                             4584.05  4601.67  4611.83  4618.92

 Zero-point correction=                           0.257528 (Hartree/Particle)
 Thermal correction to Energy=                    0.272034
 Thermal correction to Enthalpy=                  0.272978
 Thermal correction to Gibbs Free Energy=         0.212893
 Sum of electronic and zero-point Energies=           -542.847973
 Sum of electronic and thermal Energies=              -542.833466
 Sum of electronic and thermal Enthalpies=            -542.832522
 Sum of electronic and thermal Free Energies=         -542.892608

                     E (Thermal)             CV                S
                      KCal/Mol        Cal/Mol-Kelvin    Cal/Mol-Kelvin
 Total                  170.704             53.229            126.461
 Electronic               0.000              0.000              0.000
 Translational            0.889              2.981             41.538
 Rotational               0.889              2.981             32.649
 Vibrational            168.927             47.268             52.275
 Vibration     1          0.593              1.986              6.774
 Vibration     2          0.594              1.983              5.661
 Vibration     3          0.594              1.981              5.250
 Vibration     4          0.595              1.980              5.075
 Vibration     5          0.596              1.975              4.617
 Vibration     6          0.608              1.935              3.137
 Vibration     7          0.617              1.907              2.727
 Vibration     8          0.635              1.850              2.198
 Vibration     9          0.646              1.815              1.983
 Vibration    10          0.659              1.774              1.780
 Vibration    11          0.679              1.713              1.540
 Vibration    12          0.693              1.674              1.417
 Vibration    13          0.724              1.584              1.185
 Vibration    14          0.765              1.473              0.968
 Vibration    15          0.778              1.440              0.912
 Vibration    16          0.820              1.333              0.759
 Vibration    17          0.853              1.256              0.665
 Vibration    18          0.889              1.174              0.577
 Vibration    19          0.926              1.096              0.504
 Vibration    20          0.941              1.066              0.478

 Optimization completed.
    -- Stationary point found.
 Normal termination of Gaussian 16 at Sun Sep 17 17:19:18 2023.
