 Gaussian 16, Revision B.01,
 Gaussian 16:  EM64L-G16RevB.01 20-Dec-2017

 ----------------------------------------------------------------------
 # opt freq b3lyp/6-31+g(d) geom=connectivity empiricaldispersion=gd3 v
 olume
 ----------------------------------------------------------------------

 -------------------
 Title Card Required
 -------------------
 Symbolic Z-matrix:
 Charge =  0 Multiplicity = 1

 SCF Done:  E(RB3LYP) =  -631.693211477     A.U. after   16 cycles
 SCF Done:  E(RB3LYP) =  -631.693211305     A.U. after   11 cycles
 SCF Done:  E(RB3LYP) =  -631.693211512     A.U. after   11 cycles
 Optimization completed.
    -- Stationary point found.
 Normal termination of Gaussian 16 at Mon Sep 18 06:20:30 2023.

 ---------------------------------------------------------------------
 #N Geom=AllCheck Guess=TCheck SCRF=Check GenChk RB3LYP/6-31+G(d) Freq
 ---------------------------------------------------------------------

 Structure from the checkpoint file:  "molecule_37.chk"
 -------------------
 Title Card Required
 -------------------
 Charge =  0 Multiplicity = 1

                         Standard orientation:
 ---------------------------------------------------------------------
 Center     Atomic      Atomic             Coordinates (Angstroms)
 Number     Number       Type             X           Y           Z
 ---------------------------------------------------------------------
      1          6           0       -5.418067   -1.207977    0.000368
      2          6           0       -3.308063    0.001140   -0.000008
      3          6           0       -4.022405    1.218402   -0.000312
      4          6           0       -5.416028    1.214014   -0.000279
      5          6           0       -6.118155    0.003620    0.000060
      6          1           0       -5.959847   -2.150166    0.000633
      7          1           0       -3.473527    2.155513   -0.000575
      8          1           0       -5.956240    2.157126   -0.000517
      9          6           0       -1.886080   -0.001535   -0.000050
     10          6           0       -0.664030   -0.010024   -0.000036
     11          6           0        0.696016   -0.021047   -0.000076
     12          6           0        1.917015   -0.036193   -0.000100
     13          6           0        3.344192   -0.021634   -0.000083
     14          6           0        4.034862    1.207457    0.000318
     15          6           0        5.427171    1.193409    0.000380
     16          1           0        3.477873    2.139167    0.000569
     17          6           0        5.314625   -1.203460   -0.000310
     18          6           0        6.087796   -0.036640    0.000060
     19          1           0        5.985526    2.125875    0.000679
     20          1           0        5.794086   -2.180849   -0.000562
     21          6           0       -4.024484   -1.215026    0.000336
     22          1           0       -3.476943   -2.152857    0.000571
     23          1           0        7.172232   -0.097127    0.000101
     24          7           0        3.979371   -1.215467   -0.000372
     25          1           0       -7.204953    0.004549    0.000087
 ---------------------------------------------------------------------

 SCF Done:  E(RB3LYP) =  -631.693211512     A.U. after    1 cycles

 The electronic state is 1-A.
 Alpha  occ. eigenvalues --  -14.34863 -10.26184 -10.23854 -10.23256 -10.22563
 Alpha  occ. eigenvalues --  -10.21909 -10.21900 -10.21687 -10.21626 -10.21444
 Alpha  occ. eigenvalues --  -10.21262 -10.21227 -10.21170 -10.21078 -10.20951
 Alpha  occ. eigenvalues --  -10.20927  -0.95954  -0.87668  -0.81988  -0.81615
 Alpha  occ. eigenvalues --   -0.79929  -0.77270  -0.76376  -0.73227  -0.66948
 Alpha  occ. eigenvalues --   -0.64619  -0.63987  -0.62255  -0.59862  -0.55500
 Alpha  occ. eigenvalues --   -0.54386  -0.50396  -0.49745  -0.49464  -0.47028
 Alpha  occ. eigenvalues --   -0.45299  -0.44955  -0.43859  -0.42254  -0.42045
 Alpha  occ. eigenvalues --   -0.39503  -0.38972  -0.37429  -0.36678  -0.35645
 Alpha  occ. eigenvalues --   -0.34713  -0.31560  -0.30011  -0.27534  -0.27306
 Alpha  occ. eigenvalues --   -0.27006  -0.25471  -0.22439
 Alpha virt. eigenvalues --   -0.07960  -0.04038  -0.02964  -0.02593  -0.02473
 Alpha virt. eigenvalues --   -0.00118   0.00253   0.01878   0.02271   0.02474
 Alpha virt. eigenvalues --    0.03446   0.03614   0.04642   0.04662   0.05262

 Mulliken charges:
               1
     1  C    0.082550
     2  C    0.517758
     3  C   -0.560068
     4  C    0.081751
     5  C   -0.196856
     6  H    0.185611
     7  H    0.197365
     8  H    0.184899
     9  C   -1.492932
    10  C    1.353719
    11  C    0.791491
    12  C   -1.030566
    13  C    0.136314
    14  C   -0.275493
    15  C   -0.206187
    16  H    0.204274
    17  C   -0.140967
    18  C   -0.033135
    19  H    0.192555
    20  H    0.181894
    21  C   -0.599858
    22  H    0.201060
    23  H    0.190661
    24  N   -0.149586
    25  H    0.183744
 Sum of Mulliken charges =   0.00000

 Dipole moment (field-independent basis, Debye):
    X=              0.2113    Y=              1.9863    Z=              0.0007  Tot=              1.9975
 Quadrupole moment (field-independent basis, Debye-Ang):
   XX=            -53.5759   YY=            -85.7113   ZZ=            -98.3854
   XY=              6.5432   XZ=              0.0023   YZ=             -0.0014

  Exact polarizability: 471.272   0.230 158.645   0.001   0.000  88.490
 Approx polarizability: 686.752  -1.454 265.168   0.001   0.000 128.170

                      1                      2                      3
                      A                      A                      A
 Frequencies --     12.1582                29.1386                34.0888
 Red. masses --      3.9953                 5.5813                 6.3596
 Frc consts  --      0.0003                 0.0028                 0.0044
 IR Inten    --      1.0522                 1.5994                 1.8730

                      4                      5                      6
                      A                      A                      A
 Frequencies --     83.7057                94.7341               189.9535
 Red. masses --      5.6487                 5.6398                 5.6842
 Frc consts  --      0.0233                 0.0298                 0.1208
 IR Inten    --      0.5094                 0.1885                 0.4750

                      7                      8                      9
                      A                      A                      A
 Frequencies --    225.6951               232.3784               306.2973
 Red. masses --      7.6011                 7.2059                 5.5870
 Frc consts  --      0.2281                 0.2293                 0.3088
 IR Inten    --      0.4052                 0.0507                 0.0110

                     10                     11                     12
                      A                      A                      A
 Frequencies --    410.8484               412.0069               433.4928
 Red. masses --      2.9982                 3.3917                 4.4439
 Frc consts  --      0.2982                 0.3392                 0.4920
 IR Inten    --      0.8782                 4.1653                 2.2965

                     13                     14                     15
                      A                      A                      A
 Frequencies --    468.6990               486.8061               530.0007
 Red. masses --      7.6847                 8.6507                 8.5669
 Frc consts  --      0.9946                 1.2078                 1.4178
 IR Inten    --      1.1731                17.1082                 1.5387

                     16                     17                     18
                      A                      A                      A
 Frequencies --    532.6630               613.1226               630.9573
 Red. masses --      3.3410                 4.3724                 6.7493
 Frc consts  --      0.5585                 0.9684                 1.5831
 IR Inten    --      0.0032                13.8990                 0.5553

                     19                     20                     21
                      A                      A                      A
 Frequencies --    637.4480               691.9920               700.2277
 Red. masses --      7.2336                 6.8810                 1.8780
 Frc consts  --      1.7318                 1.9414                 0.5425
 IR Inten    --      2.0683                 0.2132                40.7922

                     22                     23                     24
                      A                      A                      A
 Frequencies --    723.3144               749.1033               769.3844
 Red. masses --     11.4883                 1.8366                 1.8130
 Frc consts  --      3.5413                 0.6072                 0.6323
 IR Inten    --      0.2410                20.7488                23.8482

                     25                     26                     27
                      A                      A                      A
 Frequencies --    792.1691               796.7274               853.8395
 Red. masses --      6.2086                 2.2428                 1.2474
 Frc consts  --      2.2955                 0.8388                 0.5358
 IR Inten    --     10.9879                53.8165                 0.0001

                     28                     29                     30
                      A                      A                      A
 Frequencies --    905.2427               931.5631               979.8885
 Red. masses --      1.3314                 1.4038                 1.4109
 Frc consts  --      0.6428                 0.7178                 0.7982
 IR Inten    --      0.9992                 2.5823                 0.4451

                     31                     32                     33
                      A                      A                      A
 Frequencies --    981.4091               998.6077              1003.9508
 Red. masses --      1.3652                 7.0324                 1.2874
 Frc consts  --      0.7747                 4.1318                 0.7645
 IR Inten    --      0.0003                 3.9866                 0.0200

                     34                     35                     36
                      A                      A                      A
 Frequencies --   1008.7977              1010.4926              1021.6669
 Red. masses --      1.3148                 6.4954                 7.8711
 Frc consts  --      0.7883                 3.9077                 4.8407
 IR Inten    --      0.0337                 1.3581                 0.9444

                     37                     38                     39
                      A                      A                      A
 Frequencies --   1055.2822              1072.8448              1106.6637
 Red. masses --      2.1367                 2.1845                11.5084
 Frc consts  --      1.4020                 1.4814                 8.3042
 IR Inten    --      9.2013                 3.7064                 0.3344

                     40                     41                     42
                      A                      A                      A
 Frequencies --   1110.0874              1122.5787              1190.0652
 Red. masses --      1.6278                 1.6046                 1.1340
 Frc consts  --      1.1818                 1.1914                 0.9463
 IR Inten    --      4.7848                 3.8418                 9.5945

                     43                     44                     45
                      A                      A                      A
 Frequencies --   1200.9436              1216.6106              1242.3661
 Red. masses --      1.1092                 1.1499                 3.9647
 Frc consts  --      0.9425                 1.0028                 3.6055
 IR Inten    --      0.0305                 0.2921                37.9907

                     46                     47                     48
                      A                      A                      A
 Frequencies --   1295.1995              1323.7170              1325.8768
 Red. masses --      4.8193                 1.7154                 3.3243
 Frc consts  --      4.7633                 1.7710                 3.4431
 IR Inten    --     10.4923                 0.6102                 0.1770

                     49                     50                     51
                      A                      A                      A
 Frequencies --   1364.6268              1388.0763              1463.9738
 Red. masses --      1.6896                 3.7714                 2.0338
 Frc consts  --      1.8538                 4.2813                 2.5682
 IR Inten    --      0.6194                 4.7189                36.3054

                     52                     53                     54
                      A                      A                      A
 Frequencies --   1481.0743              1503.2610              1536.3881
 Red. masses --      2.1865                 2.3546                 2.3751
 Frc consts  --      2.8259                 3.1350                 3.3031
 IR Inten    --      4.7134               123.4546                 1.3793

                     55                     56                     57
                      A                      A                      A
 Frequencies --   1607.2524              1615.4892              1628.6185
 Red. masses --      4.9753                 4.8910                 5.1778
 Frc consts  --      7.5724                 7.5207                 8.0916
 IR Inten    --     23.0173                 0.9726               117.4191

                     58                     59                     60
                      A                      A                      A
 Frequencies --   1647.0483              2240.7143              2317.4392
 Red. masses --      5.2770                11.9974                11.9973
 Frc consts  --      8.4343                35.4903                37.9622
 IR Inten    --      2.5141                 9.2297                84.7515

                     61                     62                     63
                      A                      A                      A
 Frequencies --   3171.9318              3181.6142              3190.5367
 Red. masses --      1.0892                 1.0858                 1.0888
 Frc consts  --      6.4569                 6.4756                 6.5301
 IR Inten    --     29.1846                 1.9639                 6.1718

                     64                     65                     66
                      A                      A                      A
 Frequencies --   3191.2994              3201.7748              3209.7320
 Red. masses --      1.0887                 1.0923                 1.0943
 Frc consts  --      6.5326                 6.5972                 6.6422
 IR Inten    --      8.2138                21.1336                19.5064

                     67                     68                     69
                      A                      A                      A
 Frequencies --   3209.7431              3213.7982              3217.5223
 Red. masses --      1.0935                 1.0973                 1.0971
 Frc consts  --      6.6377                 6.6774                 6.6919
 IR Inten    --     24.6390                14.9123                10.0539

 - Thermochemistry -
 -------------------
 Temperature   298.150 Kelvin.  Pressure   1.00000 Atm.
 Atom     1 has atomic number  6 and mass  12.00000

 Molecular mass:   203.07350 amu.
 Principal axes and moments of inertia in atomic units:
                           1         2         3
     Eigenvalues --   628.73473********************
           X            1.00000   0.00188   0.00000
           Y           -0.00188   1.00000  -0.00001
           Z            0.00000   0.00001   1.00000
 This molecule is an asymmetric top.
 Rotational symmetry number  1.
 Warning -- assumption of classical behavior for rotation
           may cause significant error
 Rotational temperatures (Kelvin)      0.13776     0.00648     0.00619
 Rotational constants (GHZ):           2.87043     0.13507     0.12900
 Zero-point vibrational energy     503189.5 (Joules/Mol)
                                  120.26519 (Kcal/Mol)
 Warning -- explicit consideration of  17 degrees of freedom as
           vibrations may cause significant error
 Vibrational temperatures:     17.49    41.92    49.05   120.43   136.30
          (Kelvin)            273.30   324.72   334.34   440.69   591.12
                              592.79   623.70   674.35   700.41   762.55
                              766.38   882.15   907.81   917.15   995.62
                             1007.47  1040.69  1077.79  1106.97  1139.75
                             1146.31  1228.48  1302.44  1340.31  1409.84
                             1412.03  1436.77  1444.46  1451.43  1453.87
                             1469.95  1518.32  1543.58  1592.24  1597.17
                             1615.14  1712.24  1727.89  1750.43  1787.49
                             1863.50  1904.53  1907.64  1963.39  1997.13
                             2106.33  2130.94  2162.86  2210.52  2312.48
                             2324.33  2343.22  2369.74  3223.89  3334.28
                             4563.70  4577.63  4590.47  4591.57  4606.64
                             4618.09  4618.10  4623.94  4629.30

 Zero-point correction=                           0.191655 (Hartree/Particle)
 Thermal correction to Energy=                    0.204253
 Thermal correction to Enthalpy=                  0.205197
 Thermal correction to Gibbs Free Energy=         0.148720
 Sum of electronic and zero-point Energies=           -631.501557
 Sum of electronic and thermal Energies=              -631.488958
 Sum of electronic and thermal Enthalpies=            -631.488014
 Sum of electronic and thermal Free Energies=         -631.544491

                     E (Thermal)             CV                S
                      KCal/Mol        Cal/Mol-Kelvin    Cal/Mol-Kelvin
 Total                  128.171             47.863            118.866
 Electronic               0.000              0.000              0.000
 Translational            0.889              2.981             41.830
 Rotational               0.889              2.981             33.130
 Vibrational            126.393             41.901             43.907
 Vibration     1          0.593              1.987              7.623
 Vibration     2          0.593              1.984              5.887
 Vibration     3          0.594              1.983              5.576
 Vibration     4          0.601              1.960              3.802
 Vibration     5          0.603              1.953              3.560
 Vibration     6          0.633              1.854              2.228
 Vibration     7          0.650              1.802              1.913
 Vibration     8          0.653              1.791              1.860
 Vibration     9          0.697              1.662              1.382
 Vibration    10          0.775              1.447              0.924
 Vibration    11          0.776              1.444              0.920
 Vibration    12          0.794              1.397              0.847
 Vibration    13          0.826              1.319              0.741
 Vibration    14          0.843              1.279              0.692
 Vibration    15          0.885              1.184              0.587
 Vibration    16          0.888              1.178              0.581
 Vibration    17          0.972              1.004              0.428

 Optimization completed.
    -- Stationary point found.
 Normal termination of Gaussian 16 at Mon Sep 18 06:23:52 2023.
