 Gaussian 16, Revision B.01,
 Gaussian 16:  EM64L-G16RevB.01 20-Dec-2017

 ---------------------------------------------------------
 # opt freq b3lyp/6-31+g(d) empiricaldispersion=gd3 volume
 ---------------------------------------------------------

 -------------------
 Title Card Required
 -------------------
 Symbolic Z-matrix:
 Charge =  0 Multiplicity = 1

 SCF Done:  E(RB3LYP) =  -631.713451740     A.U. after   15 cycles
 Optimization completed.
    -- Stationary point found.
 Normal termination of Gaussian 16 at Sun Sep 17 16:19:43 2023.

 ---------------------------------------------------------------------
 #N Geom=AllCheck Guess=TCheck SCRF=Check GenChk RB3LYP/6-31+G(d) Freq
 ---------------------------------------------------------------------

 Structure from the checkpoint file:  "molecule_12.chk"
 -------------------
 Title Card Required
 -------------------
 Charge =  0 Multiplicity = 1

                         Standard orientation:
 ---------------------------------------------------------------------
 Center     Atomic      Atomic             Coordinates (Angstroms)
 Number     Number       Type             X           Y           Z
 ---------------------------------------------------------------------
      1          6           0       -1.977579    1.214388    0.000078
      2          6           0       -1.258047    0.000090   -0.000017
      3          6           0       -1.977526   -1.214287   -0.000066
      4          6           0       -3.367378   -1.217494   -0.000057
      5          6           0       -4.063922    0.000003    0.000011
      6          1           0       -1.434062    2.154064    0.000143
      7          1           0       -1.433908   -2.153904   -0.000108
      8          1           0       -3.922272   -2.150219   -0.000106
      9          6           0        0.164780    0.000078   -0.000021
     10          6           0        1.382160    0.000046   -0.000050
     11          6           0        2.807119    0.000012   -0.000039
     12          6           0        3.522963    1.215517   -0.000087
     13          6           0        3.522907   -1.215529    0.000056
     14          6           0        4.916805    1.210497   -0.000048
     15          1           0        2.975645    2.153655   -0.000154
     16          6           0        4.916747   -1.210574    0.000091
     17          1           0        2.975544   -2.153641    0.000101
     18          6           0        5.618437   -0.000054    0.000030
     19          1           0        5.457499    2.153338   -0.000088
     20          1           0        5.457398   -2.153439    0.000169
     21          1           0        6.705206   -0.000081    0.000065
     22          6           0       -3.367461    1.217512    0.000083
     23          1           0       -3.922372    2.150225    0.000147
     24          7           0       -5.448075   -0.000063    0.000005
     25          6           0       -6.627030   -0.000131    0.000002
 ---------------------------------------------------------------------

 SCF Done:  E(RB3LYP) =  -631.713451740     A.U. after    1 cycles

 The electronic state is 1-A.
 Alpha  occ. eigenvalues --  -14.39053 -10.27619 -10.24479 -10.23934 -10.23464
 Alpha  occ. eigenvalues --  -10.22762 -10.22761 -10.22578 -10.22578 -10.21483
 Alpha  occ. eigenvalues --  -10.21483 -10.21296 -10.21237 -10.21206 -10.21190
 Alpha  occ. eigenvalues --  -10.20944  -0.97981  -0.89018  -0.87878  -0.81847
 Alpha  occ. eigenvalues --   -0.79333  -0.78239  -0.76628  -0.74525  -0.69190
 Alpha  occ. eigenvalues --   -0.64575  -0.63638  -0.62513  -0.59112  -0.56647
 Alpha  occ. eigenvalues --   -0.54362  -0.50265  -0.49784  -0.47239  -0.47202
 Alpha  occ. eigenvalues --   -0.45542  -0.45278  -0.44122  -0.43808  -0.41970
 Alpha  occ. eigenvalues --   -0.39916  -0.39643  -0.38330  -0.37642  -0.36740
 Alpha  occ. eigenvalues --   -0.35574  -0.33019  -0.31923  -0.28935  -0.28650
 Alpha  occ. eigenvalues --   -0.28567  -0.27266  -0.23136
 Alpha virt. eigenvalues --   -0.08120  -0.03921  -0.03161  -0.02752  -0.00658
 Alpha virt. eigenvalues --    0.00284   0.00355   0.01448   0.02053   0.02153
 Alpha virt. eigenvalues --    0.02386   0.03084   0.03873   0.04195   0.04308

 Mulliken charges:
               1
     1  C   -0.524261
     2  C    0.199619
     3  C   -0.524408
     4  C    0.181457
     5  C   -0.086964
     6  H    0.203048
     7  H    0.203050
     8  H    0.204829
     9  C   -0.033218
    10  C    0.011028
    11  C    0.160963
    12  C   -0.274747
    13  C   -0.274822
    14  C   -0.165069
    15  H    0.193891
    16  C   -0.165093
    17  H    0.193891
    18  C   -0.196445
    19  H    0.185134
    20  H    0.185134
    21  H    0.183972
    22  C    0.181477
    23  H    0.204828
    24  N   -0.206169
    25  C   -0.041122
 Sum of Mulliken charges =   0.00000

 Dipole moment (field-independent basis, Debye):
    X=              4.8857    Y=              0.0001    Z=              0.0001  Tot=              4.8857
 Quadrupole moment (field-independent basis, Debye-Ang):
   XX=           -115.5894   YY=            -80.3151   ZZ=            -98.6875
   XY=             -0.0015   XZ=              0.0002   YZ=              0.0000

  Exact polarizability: 410.282   0.000 161.376   0.000   0.000  90.197
 Approx polarizability: 572.653   0.000 274.222  -0.001   0.000 133.169

                      1                      2                      3
                      A                      A                      A
 Frequencies --     21.8048                36.4670                36.8374
 Red. masses --      3.6488                 7.6972                 5.9805
 Frc consts  --      0.0010                 0.0060                 0.0048
 IR Inten    --      0.0000                 0.1928                 0.0803

                      4                      5                      6
                      A                      A                      A
 Frequencies --     99.4803               124.5987               175.6765
 Red. masses --      6.6430                 6.6850                 6.7117
 Frc consts  --      0.0387                 0.0611                 0.1220
 IR Inten    --      3.7641                 2.4263                 1.8406

                      7                      8                      9
                      A                      A                      A
 Frequencies --    182.8553               232.1489               293.2158
 Red. masses --      6.8570                 7.6430                 6.9472
 Frc consts  --      0.1351                 0.2427                 0.3519
 IR Inten    --      1.1722                 0.0042                 0.1722

                     10                     11                     12
                      A                      A                      A
 Frequencies --    387.7012               411.3748               415.0406
 Red. masses --      5.7612                 2.9151                 2.9951
 Frc consts  --      0.5102                 0.2907                 0.3040
 IR Inten    --      0.0036                 0.0000                 0.0000

                     13                     14                     15
                      A                      A                      A
 Frequencies --    454.5897               476.5664               478.9357
 Red. masses --      9.5216                 6.7151                 8.9495
 Frc consts  --      1.1593                 0.8986                 1.2095
 IR Inten    --      3.5434                 0.1489                13.4383

                     16                     17                     18
                      A                      A                      A
 Frequencies --    505.5016               548.4992               550.1075
 Red. masses --      6.5440                 2.7358                 7.4355
 Frc consts  --      0.9852                 0.4849                 1.3257
 IR Inten    --      0.0668                23.5741                 0.0604

                     19                     20                     21
                      A                      A                      A
 Frequencies --    568.1720               634.6210               651.2673
 Red. masses --      3.8765                 6.6054                 6.6690
 Frc consts  --      0.7373                 1.5674                 1.6666
 IR Inten    --      0.5243                 0.0004                 1.2213

                     22                     23                     24
                      A                      A                      A
 Frequencies --    660.0215               698.5807               725.8271
 Red. masses --      7.3613                 1.9889                 4.0436
 Frc consts  --      1.8894                 0.5719                 1.2551
 IR Inten    --      0.0007                33.9784                 0.4403

                     25                     26                     27
                      A                      A                      A
 Frequencies --    769.5277               784.7160               840.7792
 Red. masses --      1.7474                 6.3804                 1.2462
 Frc consts  --      0.6096                 2.3148                 0.5191
 IR Inten    --     46.9362                 2.7108                 0.0000

                     28                     29                     30
                      A                      A                      A
 Frequencies --    853.3911               858.4096               864.5917
 Red. masses --      1.2484                 1.6409                 6.2425
 Frc consts  --      0.5357                 0.7124                 2.7494
 IR Inten    --      0.0000                63.8587                 0.0005

                     31                     32                     33
                      A                      A                      A
 Frequencies --    930.8736               973.2876               977.3622
 Red. masses --      1.4008                 1.3223                 1.3475
 Frc consts  --      0.7152                 0.7380                 0.7584
 IR Inten    --      3.1335                 0.2407                 0.0000

                     34                     35                     36
                      A                      A                      A
 Frequencies --    980.3665              1003.4408              1012.7567
 Red. masses --      1.3650                 1.2842                 6.2613
 Frc consts  --      0.7730                 0.7618                 3.7838
 IR Inten    --      0.0000                 0.0203                 0.2107

                     37                     38                     39
                      A                      A                      A
 Frequencies --   1035.3905              1052.0172              1109.9682
 Red. masses --      2.8237                 2.2662                 1.6221
 Frc consts  --      1.7835                 1.4777                 1.1774
 IR Inten    --      1.8850                 4.5461                 5.1754

                     40                     41                     42
                      A                      A                      A
 Frequencies --   1144.5028              1162.6236              1200.7814
 Red. masses --      1.3670                 3.8179                 1.1091
 Frc consts  --      1.0550                 3.0406                 0.9422
 IR Inten    --      7.1300                 2.4168                 0.0149

                     43                     44                     45
                      A                      A                      A
 Frequencies --   1206.4847              1217.3672              1234.4542
 Red. masses --      1.4423                 1.1544                 2.2964
 Frc consts  --      1.2370                 1.0080                 2.0618
 IR Inten    --      2.7099                 0.3620                 8.3706

                     46                     47                     48
                      A                      A                      A
 Frequencies --   1320.2067              1327.3508              1338.4918
 Red. masses --      5.9328                 3.4301                 1.3751
 Frc consts  --      6.0925                 3.5606                 1.4515
 IR Inten    --      1.2629                 0.4204                 1.1184

                     49                     50                     51
                      A                      A                      A
 Frequencies --   1350.6143              1364.4077              1452.5774
 Red. masses --      3.9000                 1.7043                 2.8824
 Frc consts  --      4.1916                 1.8693                 3.5833
 IR Inten    --      6.0867                 0.5806                 2.2173

                     52                     53                     54
                      A                      A                      A
 Frequencies --   1481.9785              1529.6635              1550.6955
 Red. masses --      2.1882                 2.1476                 2.6504
 Frc consts  --      2.8315                 2.9607                 3.7551
 IR Inten    --      4.3478                 0.4889                89.7889

                     55                     56                     57
                      A                      A                      A
 Frequencies --   1593.9555              1616.9510              1645.9417
 Red. masses --      6.5532                 4.9589                 5.2901
 Frc consts  --      9.8097                 7.6388                 8.4439
 IR Inten    --      0.7044                 1.2856                 0.0959

                     58                     59                     60
                      A                      A                      A
 Frequencies --   1656.2693              2200.9765              2305.6464
 Red. masses --      5.5676                13.0035                11.9980
 Frc consts  --      8.9987                37.1143                37.5789
 IR Inten    --     22.4128               261.1530                36.3264

                     61                     62                     63
                      A                      A                      A
 Frequencies --   3181.5048              3189.8767              3200.8234
 Red. masses --      1.0857                 1.0885                 1.0919
 Frc consts  --      6.4747                 6.5259                 6.5911
 IR Inten    --      2.2289                 4.4590                18.4202

                     64                     65                     66
                      A                      A                      A
 Frequencies --   3206.1912              3206.7995              3207.9002
 Red. masses --      1.0890                 1.0889                 1.0943
 Frc consts  --      6.5956                 6.5977                 6.6350
 IR Inten    --      7.1869                 0.5446                23.9569

                     67                     68                     69
                      A                      A                      A
 Frequencies --   3212.8134              3221.7239              3223.2757
 Red. masses --      1.0976                 1.0952                 1.0960
 Frc consts  --      6.6754                 6.6974                 6.7088
 IR Inten    --     14.9099                 6.5433                 1.1539

 - Thermochemistry -
 -------------------
 Temperature   298.150 Kelvin.  Pressure   1.00000 Atm.
 Atom     1 has atomic number  6 and mass  12.00000

 Molecular mass:   203.07350 amu.
 Principal axes and moments of inertia in atomic units:
                           1         2         3
     Eigenvalues --   639.08708********************
           X            1.00000   0.00000   0.00000
           Y            0.00000   1.00000   0.00000
           Z            0.00000   0.00000   1.00000
 This molecule is an asymmetric top.
 Rotational symmetry number  1.
 Warning -- assumption of classical behavior for rotation
           may cause significant error
 Rotational temperatures (Kelvin)      0.13553     0.00793     0.00749
 Rotational constants (GHZ):           2.82394     0.16526     0.15613
 Zero-point vibrational energy     497464.8 (Joules/Mol)
                                  118.89694 (Kcal/Mol)
 Warning -- explicit consideration of  19 degrees of freedom as
           vibrations may cause significant error
 Vibrational temperatures:     31.37    52.47    53.00   143.13   179.27
          (Kelvin)            252.76   263.09   334.01   421.87   557.82
                              591.88   597.15   654.05   685.67   689.08
                              727.30   789.17   791.48   817.47   913.08
                              937.03   949.62  1005.10  1044.30  1107.18
                             1129.03  1209.69  1227.84  1235.06  1243.95
                             1339.32  1400.34  1406.21  1410.53  1443.73
                             1457.13  1489.70  1513.62  1597.00  1646.68
                             1672.76  1727.66  1735.86  1751.52  1776.10
                             1899.48  1909.76  1925.79  1943.23  1963.08
                             2089.93  2132.24  2200.84  2231.10  2293.35
                             2326.43  2368.14  2383.00  3166.71  3317.31
                             4577.48  4589.52  4605.27  4612.99  4613.87
                             4615.45  4622.52  4635.34  4637.57

 Zero-point correction=                           0.189474 (Hartree/Particle)
 Thermal correction to Energy=                    0.202475
 Thermal correction to Enthalpy=                  0.203419
 Thermal correction to Gibbs Free Energy=         0.147450
 Sum of electronic and zero-point Energies=           -631.523977
 Sum of electronic and thermal Energies=              -631.510977
 Sum of electronic and thermal Enthalpies=            -631.510033
 Sum of electronic and thermal Free Energies=         -631.566002

                     E (Thermal)             CV                S
                      KCal/Mol        Cal/Mol-Kelvin    Cal/Mol-Kelvin
 Total                  127.055             49.742            117.798
 Electronic               0.000              0.000              0.000
 Translational            0.889              2.981             41.830
 Rotational               0.889              2.981             32.756
 Vibrational            125.278             43.781             43.212
 Vibration     1          0.593              1.985              6.463
 Vibration     2          0.594              1.982              5.442
 Vibration     3          0.594              1.982              5.422
 Vibration     4          0.604              1.949              3.464
 Vibration     5          0.610              1.928              3.028
 Vibration     6          0.628              1.872              2.374
 Vibration     7          0.630              1.863              2.299
 Vibration     8          0.653              1.792              1.862
 Vibration     9          0.688              1.686              1.455
 Vibration    10          0.756              1.496              1.009
 Vibration    11          0.775              1.446              0.922
 Vibration    12          0.778              1.438              0.909
 Vibration    13          0.813              1.351              0.782
 Vibration    14          0.833              1.302              0.719
 Vibration    15          0.835              1.297              0.713
 Vibration    16          0.861              1.238              0.645
 Vibration    17          0.904              1.143              0.547
 Vibration    18          0.905              1.139              0.544
 Vibration    19          0.924              1.100              0.508

 Optimization completed.
    -- Stationary point found.
 Normal termination of Gaussian 16 at Sun Sep 17 16:23:22 2023.
