 Gaussian 16, Revision B.01,
 Gaussian 16:  EM64L-G16RevB.01 20-Dec-2017

 ----------------------------------------------------------------------
 # opt freq b3lyp/6-31+g(d) geom=connectivity empiricaldispersion=gd3 v
 olume
 ----------------------------------------------------------------------

 -------------
 ML molecule71
 -------------
 Symbolic Z-matrix:
 Charge =  0 Multiplicity = 1

 SCF Done:  E(RB3LYP) =  -742.957928835     A.U. after   16 cycles
 SCF Done:  E(RB3LYP) =  -742.988117614     A.U. after   17 cycles
 SCF Done:  E(RB3LYP) =  -743.015280897     A.U. after   17 cycles
 SCF Done:  E(RB3LYP) =  -743.033650525     A.U. after   14 cycles
 SCF Done:  E(RB3LYP) =  -743.034770065     A.U. after   17 cycles
 SCF Done:  E(RB3LYP) =  -743.043013823     A.U. after   17 cycles
 SCF Done:  E(RB3LYP) =  -743.039802256     A.U. after   16 cycles
 SCF Done:  E(RB3LYP) =  -743.048423295     A.U. after   15 cycles
 SCF Done:  E(RB3LYP) =  -743.052076337     A.U. after   17 cycles
 SCF Done:  E(RB3LYP) =  -743.052990205     A.U. after   17 cycles
 SCF Done:  E(RB3LYP) =  -743.065727460     A.U. after   16 cycles
 SCF Done:  E(RB3LYP) =  -743.065852069     A.U. after   14 cycles
 SCF Done:  E(RB3LYP) =  -743.065860056     A.U. after   12 cycles
 SCF Done:  E(RB3LYP) =  -743.065862456     A.U. after   12 cycles
 SCF Done:  E(RB3LYP) =  -743.065863179     A.U. after   11 cycles
 SCF Done:  E(RB3LYP) =  -743.065863634     A.U. after   11 cycles
 SCF Done:  E(RB3LYP) =  -743.065864455     A.U. after   12 cycles
 SCF Done:  E(RB3LYP) =  -743.065864894     A.U. after   11 cycles
 SCF Done:  E(RB3LYP) =  -743.065865024     A.U. after   11 cycles
 Optimization completed.
    -- Stationary point found.
 Normal termination of Gaussian 16 at Sat Sep 16 14:20:24 2023.

 ---------------------------------------------------------------------
 #N Geom=AllCheck Guess=TCheck SCRF=Check GenChk RB3LYP/6-31+G(d) Freq
 ---------------------------------------------------------------------

 Structure from the checkpoint file:  "molecule_71.chk"
 -------------
 ML molecule71
 -------------
 Charge =  0 Multiplicity = 1

                         Standard orientation:
 ---------------------------------------------------------------------
 Center     Atomic      Atomic             Coordinates (Angstroms)
 Number     Number       Type             X           Y           Z
 ---------------------------------------------------------------------
      1          6           0       -2.637553   -0.088256    0.000005
      2          6           0       -1.582414   -1.001614   -0.000528
      3          6           0       -0.270623   -0.535020   -0.000578
      4          6           0       -0.031036    0.847147   -0.000075
      5          6           0       -1.099545    1.758317    0.000513
      6          6           0       -2.406104    1.292135    0.000503
      7          1           0       -1.793168   -2.064540   -0.000997
      8          1           0       -0.881290    2.821268    0.000984
      9          1           0       -3.245207    1.977578    0.000933
     10          8           0        1.218576    1.400813   -0.000246
     11          6           0        2.339399    0.569325   -0.000049
     12          6           0        2.903549    0.189995   -1.216792
     13          6           0        2.902828    0.189378    1.216880
     14          6           0        4.059827   -0.595435   -1.210992
     15          6           0        4.059063   -0.596074    1.211310
     16          1           0        2.437840    0.510612    2.144064
     17          6           0        4.637307   -0.990355    0.000219
     18          1           0        4.509386   -0.895384   -2.153711
     19          1           0        4.508138   -0.896517    2.154110
     20          1           0        5.537070   -1.599324    0.000410
     21          1           0        0.556677   -1.235152   -0.000943
     22          1           0        2.439028    0.511765   -2.144014
     23          7           0       -4.015544   -0.584502   -0.000046
     24          8           0       -4.928677    0.246227   -0.000218
     25          8           0       -4.190880   -1.806544    0.000087
 ---------------------------------------------------------------------

 SCF Done:  E(RB3LYP) =  -743.065865024     A.U. after    1 cycles

 The electronic state is 1-A.
 Alpha  occ. eigenvalues --  -19.22379 -19.19073 -19.19062 -14.57896 -10.29369
 Alpha  occ. eigenvalues --  -10.27699 -10.25912 -10.23356 -10.23235 -10.22512
 Alpha  occ. eigenvalues --  -10.22338 -10.22228 -10.22224 -10.22084 -10.22083
 Alpha  occ. eigenvalues --  -10.21839  -1.22993  -1.11253  -1.05704  -0.90196
 Alpha  occ. eigenvalues --   -0.88153  -0.81929  -0.78883  -0.77731  -0.77126
 Alpha  occ. eigenvalues --   -0.70945  -0.65945  -0.64126  -0.63495  -0.60136
 Alpha  occ. eigenvalues --   -0.57871  -0.56108  -0.53669  -0.52830  -0.52459
 Alpha  occ. eigenvalues --   -0.50112  -0.49837  -0.48023  -0.47356  -0.46072
 Alpha  occ. eigenvalues --   -0.45274  -0.44296  -0.42990  -0.42852  -0.39325
 Alpha  occ. eigenvalues --   -0.39058  -0.38500  -0.36835  -0.35891  -0.31800
 Alpha  occ. eigenvalues --   -0.31731  -0.29839  -0.29060  -0.28188  -0.27311
 Alpha  occ. eigenvalues --   -0.26260
 Alpha virt. eigenvalues --   -0.09838  -0.04703  -0.03486  -0.03235  -0.00931
 Alpha virt. eigenvalues --   -0.00669   0.00586   0.01367   0.01685   0.02267
 Alpha virt. eigenvalues --    0.03097   0.03639   0.03761   0.04654   0.05463

 Mulliken charges:
               1
     1  C   -0.093387
     2  C   -0.618035
     3  C    0.729558
     4  C    0.172833
     5  C   -0.867479
     6  C    0.090425
     7  H    0.232081
     8  H    0.206197
     9  H    0.231348
    10  O   -0.317388
    11  C    0.040548
    12  C   -0.009483
    13  C   -0.009256
    14  C   -0.149495
    15  C   -0.149300
    16  H    0.195022
    17  C   -0.250896
    18  H    0.189435
    19  H    0.189431
    20  H    0.185797
    21  H    0.216443
    22  H    0.195025
    23  N   -0.338961
    24  O   -0.033232
    25  O   -0.037231
 Sum of Mulliken charges =   0.00000

 Dipole moment (field-independent basis, Debye):
    X=              6.3340    Y=              0.5273    Z=              0.0004  Tot=              6.3559
 Quadrupole moment (field-independent basis, Debye-Ang):
   XX=           -112.4209   YY=            -92.5759   ZZ=            -87.3504
   XY=            -12.8250   XZ=             -0.0033   YZ=              0.0024

  Exact polarizability: 235.642 -12.193 140.742  -0.011   0.000 116.302
 Approx polarizability: 320.836 -25.475 261.220  -0.025  -0.002 192.427

                      1                      2                      3
                      A                      A                      A
 Frequencies --      9.3138                38.6530                62.1916
 Red. masses --      4.6677                 5.8275                 6.1576
 Frc consts  --      0.0002                 0.0051                 0.0140
 IR Inten    --      0.0662                 0.0012                 0.3730

                      4                      5                      6
                      A                      A                      A
 Frequencies --     68.5572               101.7461               198.2581
 Red. masses --      5.5761                 8.1424                 7.3175
 Frc consts  --      0.0154                 0.0497                 0.1695
 IR Inten    --      0.0016                 3.5846                 2.0282

                      7                      8                      9
                      A                      A                      A
 Frequencies --    241.7221               286.0944               319.8597
 Red. masses --      5.9293                 6.5573                 6.2648
 Frc consts  --      0.2041                 0.3162                 0.3776
 IR Inten    --      0.0716                 0.8313                 0.8350

                     10                     11                     12
                      A                      A                      A
 Frequencies --    407.2663               410.3358               422.7118
 Red. masses --      6.9623                 6.0220                 2.9774
 Frc consts  --      0.6804                 0.5974                 0.3135
 IR Inten    --      0.2614                 3.2186                 0.0535

                     13                     14                     15
                      A                      A                      A
 Frequencies --    427.2517               499.0141               500.0195
 Red. masses --      3.1296                 4.6036                 2.9502
 Frc consts  --      0.3366                 0.6754                 0.4346
 IR Inten    --      0.2128                15.1002                 6.0120

                     16                     17                     18
                      A                      A                      A
 Frequencies --    534.7951               609.5990               628.3342
 Red. masses --      6.5459                 5.2784                 6.5446
 Frc consts  --      1.1030                 1.1557                 1.5223
 IR Inten    --      1.3353                 2.0287                 0.0369

                     19                     20                     21
                      A                      A                      A
 Frequencies --    642.1921               654.4703               683.2674
 Red. masses --      7.1425                 5.9942                 4.0122
 Frc consts  --      1.7355                 1.5127                 1.1036
 IR Inten    --      1.6812                 6.6768                 3.8257

                     22                     23                     24
                      A                      A                      A
 Frequencies --    700.5833               750.0876               765.7807
 Red. masses --      1.9976                 6.7379                 2.6193
 Frc consts  --      0.5777                 2.2336                 0.9050
 IR Inten    --     28.7024                25.0974                40.1952

                     25                     26                     27
                      A                      A                      A
 Frequencies --    809.9479               829.2921               845.7048
 Red. masses --      3.0720                 1.2461                 1.2526
 Frc consts  --      1.1874                 0.5049                 0.5279
 IR Inten    --     18.5233                 0.0091                 1.3743

                     28                     29                     30
                      A                      A                      A
 Frequencies --    857.6063               861.0715               891.1949
 Red. masses --      8.8195                 1.7058                 6.3901
 Frc consts  --      3.8218                 0.7452                 2.9902
 IR Inten    --     14.7892                43.2555                56.3864

                     31                     32                     33
                      A                      A                      A
 Frequencies --    930.5196               977.7611               979.3761
 Red. masses --      1.4971                 1.3453                 1.2993
 Frc consts  --      0.7637                 0.7577                 0.7343
 IR Inten    --      9.4258                 0.2806                 1.7326

                     34                     35                     36
                      A                      A                      A
 Frequencies --    987.3698              1001.0251              1017.6960
 Red. masses --      1.3272                 1.2754                 6.2517
 Frc consts  --      0.7624                 0.7530                 3.8149
 IR Inten    --      0.0224                 0.1049                 5.4781

                     37                     38                     39
                      A                      A                      A
 Frequencies --   1026.9900              1047.1193              1102.0076
 Red. masses --      2.8173                 2.0793                 1.5149
 Frc consts  --      1.7507                 1.3433                 1.0840
 IR Inten    --      0.3958                10.6224                 7.1725

                     40                     41                     42
                      A                      A                      A
 Frequencies --   1134.3160              1151.2727              1193.7144
 Red. masses --      3.2816                 1.2509                 1.2782
 Frc consts  --      2.4877                 0.9769                 1.0731
 IR Inten    --    118.0946                12.0676                 9.2625

                     43                     44                     45
                      A                      A                      A
 Frequencies --   1197.4720              1207.8642              1225.4634
 Red. masses --      1.1173                 1.2937                 2.8059
 Frc consts  --      0.9440                 1.1121                 2.4827
 IR Inten    --      0.0194                68.3951                71.5569

                     46                     47                     48
                      A                      A                      A
 Frequencies --   1286.5810              1333.4265              1334.4727
 Red. masses --      4.7676                 1.3317                 1.8412
 Frc consts  --      4.6497                 1.3950                 1.9319
 IR Inten    --    680.8805                 2.6125                 0.4249

                     49                     50                     51
                      A                      A                      A
 Frequencies --   1356.6854              1372.8261              1378.7542
 Red. masses --      2.9122                10.0524                10.5862
 Frc consts  --      3.1581                11.1622                11.8567
 IR Inten    --      0.3104               332.7041               130.2294

                     52                     53                     54
                      A                      A                      A
 Frequencies --   1464.5546              1493.5006              1530.0740
 Red. masses --      3.3663                 2.1918                 2.2589
 Frc consts  --      4.2541                 2.8804                 3.1158
 IR Inten    --      5.2348                 2.0722               198.2370

                     55                     56                     57
                      A                      A                      A
 Frequencies --   1535.4025              1582.9052              1636.7819
 Red. masses --      2.3394                12.0744                 5.5835
 Frc consts  --      3.2493                17.8249                 8.8133
 IR Inten    --     30.1574               194.6842               190.5082

                     58                     59                     60
                      A                      A                      A
 Frequencies --   1644.2502              1647.8481              1657.2977
 Red. masses --      6.0749                 7.2932                 6.2213
 Frc consts  --      9.6766                11.6681                10.0678
 IR Inten    --      5.2490                79.9449                57.5624

                     61                     62                     63
                      A                      A                      A
 Frequencies --   3186.2453              3195.2569              3205.9483
 Red. masses --      1.0860                 1.0892                 1.0923
 Frc consts  --      6.4958                 6.5521                 6.6149
 IR Inten    --      0.5965                 7.5886                22.5460

                     64                     65                     66
                      A                      A                      A
 Frequencies --   3213.3142              3216.9641              3217.9740
 Red. masses --      1.0945                 1.0974                 1.0906
 Frc consts  --      6.6585                 6.6913                 6.6540
 IR Inten    --      9.6786                 2.7822                 2.0022

                     67                     68                     69
                      A                      A                      A
 Frequencies --   3227.5685              3244.2496              3245.5283
 Red. masses --      1.0894                 1.0936                 1.0936
 Frc consts  --      6.6863                 6.7818                 6.7869
 IR Inten    --      1.3442                 1.2989                 2.1810

 - Thermochemistry -
 -------------------
 Temperature   298.150 Kelvin.  Pressure   1.00000 Atm.
 Atom     1 has atomic number  6 and mass  12.00000

 Molecular mass:   215.05824 amu.
 Principal axes and moments of inertia in atomic units:
                           1         2         3
     Eigenvalues --  1097.597757950.641328410.02646
           X            0.99994  -0.01052   0.00000
           Y            0.01052   0.99994   0.00002
           Z            0.00000  -0.00002   1.00000
 This molecule is an asymmetric top.
 Rotational symmetry number  1.
 Warning -- assumption of classical behavior for rotation
           may cause significant error
 Rotational temperatures (Kelvin)      0.07891     0.01089     0.01030
 Rotational constants (GHZ):           1.64426     0.22699     0.21459
 Zero-point vibrational energy     493132.4 (Joules/Mol)
                                  117.86147 (Kcal/Mol)
 Warning -- explicit consideration of  17 degrees of freedom as
           vibrations may cause significant error
 Vibrational temperatures:     13.40    55.61    89.48    98.64   146.39
          (Kelvin)            285.25   347.78   411.63   460.21   585.97
                              590.38   608.19   614.72   717.97   719.42
                              769.45   877.08   904.03   923.97   941.64
                              983.07  1007.98  1079.21  1101.79  1165.33
                             1193.17  1216.78  1233.90  1238.89  1282.23
                             1338.81  1406.78  1409.10  1420.60  1440.25
                             1464.24  1477.61  1506.57  1585.54  1632.03
                             1656.42  1717.49  1722.90  1737.85  1763.17
                             1851.10  1918.50  1920.01  1951.97  1975.19
                             1983.72  2107.17  2148.81  2201.44  2209.10
                             2277.45  2354.96  2365.71  2370.89  2384.48
                             4584.30  4597.26  4612.64  4623.24  4628.49
                             4629.95  4643.75  4667.75  4669.59

 Zero-point correction=                           0.187824 (Hartree/Particle)
 Thermal correction to Energy=                    0.200397
 Thermal correction to Enthalpy=                  0.201341
 Thermal correction to Gibbs Free Energy=         0.145539
 Sum of electronic and zero-point Energies=           -742.878041
 Sum of electronic and thermal Energies=              -742.865468
 Sum of electronic and thermal Enthalpies=            -742.864524
 Sum of electronic and thermal Free Energies=         -742.920326

                     E (Thermal)             CV                S
                      KCal/Mol        Cal/Mol-Kelvin    Cal/Mol-Kelvin
 Total                  125.751             48.547            117.446
 Electronic               0.000              0.000              0.000
 Translational            0.889              2.981             42.001
 Rotational               0.889              2.981             32.662
 Vibrational            123.973             42.586             42.783
 Vibration     1          0.593              1.987              8.152
 Vibration     2          0.594              1.981              5.327
 Vibration     3          0.597              1.972              4.386
 Vibration     4          0.598              1.969              4.194
 Vibration     5          0.604              1.948              3.421
 Vibration     6          0.637              1.842              2.149
 Vibration     7          0.658              1.776              1.790
 Vibration     8          0.684              1.700              1.497
 Vibration     9          0.706              1.636              1.311
 Vibration    10          0.772              1.454              0.936
 Vibration    11          0.775              1.448              0.925
 Vibration    12          0.785              1.421              0.883
 Vibration    13          0.789              1.411              0.868
 Vibration    14          0.854              1.252              0.661
 Vibration    15          0.855              1.250              0.658
 Vibration    16          0.890              1.173              0.577
 Vibration    17          0.969              1.011              0.433

 Optimization completed.
    -- Stationary point found.
 Normal termination of Gaussian 16 at Sat Sep 16 14:24:33 2023.
