 Gaussian 16, Revision B.01,
 Gaussian 16:  EM64L-G16RevB.01 20-Dec-2017

 ----------------------------------------------------------------------
 # opt freq b3lyp/6-31+g(d) geom=connectivity empiricaldispersion=gd3 v
 olume
 ----------------------------------------------------------------------

 -------------
 ML molecule72
 -------------
 Symbolic Z-matrix:
 Charge =  0 Multiplicity = 1

 SCF Done:  E(RB3LYP) =  -857.478745427     A.U. after   16 cycles
 SCF Done:  E(RB3LYP) =  -857.511071353     A.U. after   17 cycles
 SCF Done:  E(RB3LYP) =  -857.538976866     A.U. after   16 cycles
 SCF Done:  E(RB3LYP) =  -857.559014786     A.U. after   16 cycles
 SCF Done:  E(RB3LYP) =  -857.554963295     A.U. after   18 cycles
 SCF Done:  E(RB3LYP) =  -857.565756110     A.U. after   19 cycles
 SCF Done:  E(RB3LYP) =  -857.567685613     A.U. after   17 cycles
 SCF Done:  E(RB3LYP) =  -857.576929843     A.U. after   17 cycles
 SCF Done:  E(RB3LYP) =  -857.579320578     A.U. after   17 cycles
 SCF Done:  E(RB3LYP) =  -857.580188019     A.U. after   17 cycles
 SCF Done:  E(RB3LYP) =  -857.595963172     A.U. after   14 cycles
 SCF Done:  E(RB3LYP) =  -857.596158963     A.U. after   13 cycles
 SCF Done:  E(RB3LYP) =  -857.596233127     A.U. after   13 cycles
 SCF Done:  E(RB3LYP) =  -857.596268704     A.U. after   13 cycles
 SCF Done:  E(RB3LYP) =  -857.596278041     A.U. after   14 cycles
 SCF Done:  E(RB3LYP) =  -857.596279221     A.U. after   12 cycles
 SCF Done:  E(RB3LYP) =  -857.596279796     A.U. after   12 cycles
 SCF Done:  E(RB3LYP) =  -857.596279924     A.U. after   11 cycles
 SCF Done:  E(RB3LYP) =  -857.596279986     A.U. after   10 cycles
 Optimization completed.
    -- Stationary point found.
 Normal termination of Gaussian 16 at Sat Sep 16 14:48:22 2023.

 ---------------------------------------------------------------------
 #N Geom=AllCheck Guess=TCheck SCRF=Check GenChk RB3LYP/6-31+G(d) Freq
 ---------------------------------------------------------------------

 Structure from the checkpoint file:  "molecule_72.chk"
 -------------
 ML molecule72
 -------------
 Charge =  0 Multiplicity = 1

                         Standard orientation:
 ---------------------------------------------------------------------
 Center     Atomic      Atomic             Coordinates (Angstroms)
 Number     Number       Type             X           Y           Z
 ---------------------------------------------------------------------
      1          6           0        3.409656   -0.239521   -0.022138
      2          6           0        2.253742   -1.014908    0.081251
      3          6           0        1.007012   -0.395948    0.055380
      4          6           0        0.932079    0.999145   -0.074193
      5          6           0        2.101425    1.770461   -0.177648
      6          6           0        3.343122    1.152685   -0.151724
      7          1           0        2.336981   -2.090793    0.180245
      8          1           0        2.010691    2.847270   -0.276815
      9          1           0        4.257147    1.729228   -0.229820
     10          8           0       -0.241935    1.696164   -0.113817
     11          6           0       -1.452020    1.008559    0.010768
     12          6           0       -1.988237    0.780176    1.280317
     13          6           0       -2.136093    0.615868   -1.132466
     14          6           0       -3.219807    0.145669    1.399361
     15          6           0       -3.377137   -0.022606   -1.018493
     16          1           0       -1.702054    0.810259   -2.108685
     17          6           0       -3.920808   -0.260792    0.251397
     18          1           0       -3.662133   -0.042891    2.372596
     19          1           0       -3.900698   -0.320753   -1.919339
     20          1           0        0.102458   -0.987610    0.134219
     21          1           0       -1.438796    1.102328    2.159795
     22          7           0        4.718094   -0.895705    0.005322
     23          8           0        5.723377   -0.184994   -0.088136
     24          8           0        4.747756   -2.124778    0.120189
     25          8           0       -5.118762   -0.873636    0.479946
     26          6           0       -5.888165   -1.306289   -0.636602
     27          1           0       -5.345361   -2.055252   -1.228943
     28          1           0       -6.788840   -1.757993   -0.217801
     29          1           0       -6.168144   -0.460887   -1.279417
 ---------------------------------------------------------------------

 SCF Done:  E(RB3LYP) =  -857.596279986     A.U. after    1 cycles

 The electronic state is 1-A.
 Alpha  occ. eigenvalues --  -19.22028 -19.20514 -19.18898 -19.18886 -14.57721
 Alpha  occ. eigenvalues --  -10.29069 -10.27527 -10.26792 -10.26047 -10.25705
 Alpha  occ. eigenvalues --  -10.23150 -10.23032 -10.22261 -10.22106 -10.22096
 Alpha  occ. eigenvalues --  -10.22004 -10.21887 -10.21484  -1.22809  -1.10818
 Alpha  occ. eigenvalues --   -1.08845  -1.05515  -0.89952  -0.87866  -0.81701
 Alpha  occ. eigenvalues --   -0.78708  -0.78127  -0.77369  -0.72847  -0.69744
 Alpha  occ. eigenvalues --   -0.65480  -0.64468  -0.62681  -0.59839  -0.57698
 Alpha  occ. eigenvalues --   -0.56098  -0.54976  -0.53494  -0.52514  -0.51885
 Alpha  occ. eigenvalues --   -0.49984  -0.48936  -0.47796  -0.47707  -0.46144
 Alpha  occ. eigenvalues --   -0.45699  -0.45378  -0.45019  -0.43040  -0.42372
 Alpha  occ. eigenvalues --   -0.41616  -0.39890  -0.39243  -0.37453  -0.36186
 Alpha  occ. eigenvalues --   -0.35104  -0.33792  -0.31631  -0.31560  -0.29664
 Alpha  occ. eigenvalues --   -0.28865  -0.28123  -0.26014  -0.24291
 Alpha virt. eigenvalues --   -0.09664  -0.04532  -0.03105  -0.02064  -0.00996
 Alpha virt. eigenvalues --   -0.00455   0.00186   0.01161   0.01514   0.01892
 Alpha virt. eigenvalues --    0.02444   0.03280   0.03510   0.03739   0.04487

 Mulliken charges:
               1
     1  C   -0.096025
     2  C   -0.625683
     3  C    0.712558
     4  C    0.159787
     5  C   -0.829265
     6  C    0.074738
     7  H    0.231303
     8  H    0.205473
     9  H    0.230759
    10  O   -0.320016
    11  C    0.103219
    12  C   -0.108845
    13  C   -0.445779
    14  C   -0.196101
    15  C    0.461329
    16  H    0.195730
    17  C   -0.059963
    18  H    0.200430
    19  H    0.185353
    20  H    0.218122
    21  H    0.197448
    22  N   -0.344150
    23  O   -0.032068
    24  O   -0.037059
    25  O   -0.385599
    26  C   -0.320679
    27  H    0.205644
    28  H    0.213261
    29  H    0.206080
 Sum of Mulliken charges =   0.00000

 Dipole moment (field-independent basis, Debye):
    X=             -7.0687    Y=              0.9236    Z=             -1.1593  Tot=              7.2224
 Quadrupole moment (field-independent basis, Debye-Ang):
   XX=           -124.4423   YY=           -106.4534   ZZ=            -99.5195
   XY=             17.1989   XZ=              6.8445   YZ=              1.8665

  Exact polarizability: 271.315   9.311 154.012   0.755  -1.984 127.562
 Approx polarizability: 357.808  23.316 276.642  -4.157  -8.936 212.697

                      1                      2                      3
                      A                      A                      A
 Frequencies --     15.0421                35.0911                41.2271
 Red. masses --      4.5194                 5.5117                 5.9432
 Frc consts  --      0.0006                 0.0040                 0.0060
 IR Inten    --      0.3884                 0.2454                 0.2142

                      4                      5                      6
                      A                      A                      A
 Frequencies --     68.8912                90.6542                99.7414
 Red. masses --      5.6077                 3.6850                 8.0961
 Frc consts  --      0.0157                 0.0178                 0.0475
 IR Inten    --      0.0478                 3.2886                 3.4456

                      7                      8                      9
                      A                      A                      A
 Frequencies --    159.5772               202.7638               238.7126
 Red. masses --      5.0621                 6.7005                 3.8866
 Frc consts  --      0.0759                 0.1623                 0.1305
 IR Inten    --      1.4273                 0.8281                 2.8931

                     10                     11                     12
                      A                      A                      A
 Frequencies --    265.6547               290.8753               304.7677
 Red. masses --      1.3268                 5.2909                 4.9545
 Frc consts  --      0.0552                 0.2638                 0.2711
 IR Inten    --      0.0144                 1.4284                 2.1038

                     13                     14                     15
                      A                      A                      A
 Frequencies --    355.8490               394.4967               421.2868
 Red. masses --      5.5437                 6.3406                 6.7056
 Frc consts  --      0.4136                 0.5814                 0.7012
 IR Inten    --      0.6503                 1.8290                 2.7648

                     16                     17                     18
                      A                      A                      A
 Frequencies --    427.5519               434.5644               480.1398
 Red. masses --      3.1275                 3.1421                 4.5772
 Frc consts  --      0.3368                 0.3496                 0.6217
 IR Inten    --      0.1588                 0.2005                 3.9386

                     19                     20                     21
                      A                      A                      A
 Frequencies --    501.4108               523.2441               536.9884
 Red. masses --      2.9643                 3.8702                 4.7209
 Frc consts  --      0.4391                 0.6243                 0.8021
 IR Inten    --      5.7137                15.0401                 4.6741

                     22                     23                     24
                      A                      A                      A
 Frequencies --    580.5974               632.7406               649.2890
 Red. masses --      4.2628                 6.1612                 6.9744
 Frc consts  --      0.8466                 1.4533                 1.7324
 IR Inten    --     11.0099                 1.8971                 0.9905

                     25                     26                     27
                      A                      A                      A
 Frequencies --    653.8502               687.7871               717.5122
 Red. masses --      6.0936                 3.9200                 4.6426
 Frc consts  --      1.5349                 1.0926                 1.4082
 IR Inten    --     10.2970                 4.7249                 7.3384

                     28                     29                     30
                      A                      A                      A
 Frequencies --    751.6991               757.8182               812.7644
 Red. masses --      6.7903                 4.9654                 3.0819
 Frc consts  --      2.2606                 1.6801                 1.1995
 IR Inten    --     23.1140                17.5863                10.3928

                     31                     32                     33
                      A                      A                      A
 Frequencies --    817.5935               830.1570               855.1978
 Red. masses --      1.5295                 1.2464                 2.5620
 Frc consts  --      0.6024                 0.5061                 1.1040
 IR Inten    --      0.0945                 0.1423                18.7783

                     34                     35                     36
                      A                      A                      A
 Frequencies --    861.6021               864.8114               893.7284
 Red. masses --      1.8148                 3.7239                 6.7579
 Frc consts  --      0.7938                 1.6409                 3.1803
 IR Inten    --     44.3191                49.4658                58.6178

                     37                     38                     39
                      A                      A                      A
 Frequencies --    944.0438               964.8668               979.8754
 Red. masses --      1.3536                 1.3228                 1.2919
 Frc consts  --      0.7108                 0.7255                 0.7308
 IR Inten    --      2.0883                 0.0467                 1.9918

                     40                     41                     42
                      A                      A                      A
 Frequencies --    987.5557              1026.1805              1028.3116
 Red. masses --      1.3277                 2.8137                 2.6338
 Frc consts  --      0.7629                 1.7457                 1.6409
 IR Inten    --      0.0308                 0.2905                 8.9590

                     43                     44                     45
                      A                      A                      A
 Frequencies --   1065.3366              1134.4640              1137.1035
 Red. masses --      6.5293                 3.2234                 1.2952
 Frc consts  --      4.3660                 2.4442                 0.9867
 IR Inten    --     63.1676               134.9633                11.7594

                     46                     47                     48
                      A                      A                      A
 Frequencies --   1151.0540              1181.0456              1191.5977
 Red. masses --      1.2492                 1.2694                 1.2613
 Frc consts  --      0.9752                 1.0432                 1.0552
 IR Inten    --     11.3902                 1.0831                 1.7198

                     49                     50                     51
                      A                      A                      A
 Frequencies --   1206.9126              1215.1048              1227.1207
 Red. masses --      1.3010                 1.3866                 2.7612
 Frc consts  --      1.1166                 1.2062                 2.4498
 IR Inten    --     77.0578                10.9646               167.5413

                     52                     53                     54
                      A                      A                      A
 Frequencies --   1275.9998              1301.4727              1330.2477
 Red. masses --      4.0505                 6.3754                 1.3062
 Frc consts  --      3.8856                 6.3625                 1.3619
 IR Inten    --    840.5775                76.0370                 3.5165

                     55                     56                     57
                      A                      A                      A
 Frequencies --   1332.8267              1353.1617              1372.6492
 Red. masses --      1.3306                 8.8369                10.3848
 Frc consts  --      1.3926                 9.5334                11.5283
 IR Inten    --      1.9926                21.2908               375.1931

                     58                     59                     60
                      A                      A                      A
 Frequencies --   1378.8587              1457.3626              1464.6327
 Red. masses --     10.2669                 3.1392                 3.3919
 Frc consts  --     11.5008                 3.9283                 4.2869
 IR Inten    --    110.7311                 0.7284                 5.4776

                     61                     62                     63
                      A                      A                      A
 Frequencies --   1493.6371              1519.1626              1525.5951
 Red. masses --      1.1839                 1.0457                 1.0947
 Frc consts  --      1.5561                 1.4219                 1.5012
 IR Inten    --     27.9535                 8.6015                96.7516

                     64                     65                     66
                      A                      A                      A
 Frequencies --   1533.0347              1549.9069              1581.7102
 Red. masses --      2.2116                 2.3934                12.0682
 Frc consts  --      3.0625                 3.3874                17.7888
 IR Inten    --    166.3781               200.5811               203.7124

                     67                     68                     69
                      A                      A                      A
 Frequencies --   1633.9771              1642.8968              1650.7081
 Red. masses --      6.8553                 6.1619                 7.3677
 Frc consts  --     10.7837                 9.7991                11.8282
 IR Inten    --      8.8063               147.4111                68.6536

                     70                     71                     72
                      A                      A                      A
 Frequencies --   1663.9834              3021.9810              3083.4733
 Red. masses --      5.9903                 1.0345                 1.1070
 Frc consts  --      9.7723                 5.5663                 6.2011
 IR Inten    --     73.0800                58.3035                38.1322

                     73                     74                     75
                      A                      A                      A
 Frequencies --   3159.7647              3203.9735              3206.1344
 Red. masses --      1.0997                 1.0886                 1.0900
 Frc consts  --      6.4692                 6.5841                 6.6013
 IR Inten    --     21.8191                 9.9644                 3.1758

                     76                     77                     78
                      A                      A                      A
 Frequencies --   3217.4143              3219.2311              3227.9995
 Red. masses --      1.0906                 1.0951                 1.0893
 Frc consts  --      6.6514                 6.6867                 6.6872
 IR Inten    --      2.0842                 2.8752                 1.2134

                     79                     80                     81
                      A                      A                      A
 Frequencies --   3228.9876              3244.0483              3245.3059
 Red. masses --      1.0925                 1.0937                 1.0936
 Frc consts  --      6.7114                 6.7812                 6.7858
 IR Inten    --      5.9074                 1.1196                 2.0586

 - Thermochemistry -
 -------------------
 Temperature   298.150 Kelvin.  Pressure   1.00000 Atm.
 Atom     1 has atomic number  6 and mass  12.00000

 Molecular mass:   245.06881 amu.
 Principal axes and moments of inertia in atomic units:
                           1         2         3
     Eigenvalues --  1420.18141********************
           X            0.99993   0.01102   0.00477
           Y           -0.01109   0.99980   0.01638
           Z           -0.00459  -0.01643   0.99985
 This molecule is an asymmetric top.
 Rotational symmetry number  1.
 Warning -- assumption of classical behavior for rotation
           may cause significant error
 Rotational temperatures (Kelvin)      0.06099     0.00736     0.00696
 Rotational constants (GHZ):           1.27078     0.15346     0.14506
 Zero-point vibrational energy     579090.6 (Joules/Mol)
                                  138.40598 (Kcal/Mol)
 Warning -- explicit consideration of  22 degrees of freedom as
           vibrations may cause significant error
 Vibrational temperatures:     21.64    50.49    59.32    99.12   130.43
          (Kelvin)            143.51   229.60   291.73   343.45   382.22
                              418.50   438.49   511.99   567.59   606.14
                              615.15   625.24   690.81   721.42   752.83
                              772.61   835.35   910.37   934.18   940.74
                              989.57  1032.34  1081.53  1090.33  1169.39
                             1176.33  1194.41  1230.44  1239.65  1244.27
                             1285.88  1358.27  1388.23  1409.82  1420.87
                             1476.44  1479.51  1532.78  1632.24  1636.04
                             1656.11  1699.26  1714.44  1736.48  1748.26
                             1765.55  1835.88  1872.53  1913.93  1917.64
                             1946.90  1974.94  1983.87  2096.82  2107.28
                             2149.01  2185.74  2194.99  2205.69  2229.97
                             2275.73  2350.93  2363.76  2375.00  2394.10
                             4347.96  4436.43  4546.20  4609.80  4612.91
                             4629.14  4631.76  4644.37  4645.79  4667.46
                             4669.27

 Zero-point correction=                           0.220564 (Hartree/Particle)
 Thermal correction to Energy=                    0.235670
 Thermal correction to Enthalpy=                  0.236614
 Thermal correction to Gibbs Free Energy=         0.175441
 Sum of electronic and zero-point Energies=           -857.375716
 Sum of electronic and thermal Energies=              -857.360610
 Sum of electronic and thermal Enthalpies=            -857.359666
 Sum of electronic and thermal Free Energies=         -857.420839

                     E (Thermal)             CV                S
                      KCal/Mol        Cal/Mol-Kelvin    Cal/Mol-Kelvin
 Total                  147.885             57.679            128.748
 Electronic               0.000              0.000              0.000
 Translational            0.889              2.981             42.390
 Rotational               0.889              2.981             33.696
 Vibrational            146.107             51.718             52.662
 Vibration     1          0.593              1.986              7.200
 Vibration     2          0.594              1.982              5.519
 Vibration     3          0.594              1.981              5.199
 Vibration     4          0.598              1.969              4.185
 Vibration     5          0.602              1.956              3.646
 Vibration     6          0.604              1.949              3.459
 Vibration     7          0.621              1.892              2.555
 Vibration     8          0.639              1.836              2.108
 Vibration     9          0.657              1.781              1.812
 Vibration    10          0.671              1.736              1.624
 Vibration    11          0.687              1.691              1.469
 Vibration    12          0.696              1.665              1.391
 Vibration    13          0.731              1.563              1.140
 Vibration    14          0.761              1.482              0.983
 Vibration    15          0.784              1.424              0.888
 Vibration    16          0.789              1.410              0.867
 Vibration    17          0.795              1.395              0.844
 Vibration    18          0.837              1.294              0.710
 Vibration    19          0.857              1.247              0.655
 Vibration    20          0.878              1.199              0.602
 Vibration    21          0.892              1.168              0.572
 Vibration    22          0.937              1.073              0.484

 Optimization completed.
    -- Stationary point found.
 Normal termination of Gaussian 16 at Sat Sep 16 14:54:37 2023.
