 Gaussian 16, Revision B.01,
 Gaussian 16:  EM64L-G16RevB.01 20-Dec-2017

 ----------------------------------------------------------------------
 # opt freq b3lyp/6-31+g(d) geom=connectivity empiricaldispersion=gd3 v
 olume
 ----------------------------------------------------------------------

 -------------
 ML molecule79
 -------------
 Symbolic Z-matrix:
 Charge =  0 Multiplicity = 1

 SCF Done:  E(RB3LYP) =  -896.799909463     A.U. after   16 cycles
 SCF Done:  E(RB3LYP) =  -896.832818144     A.U. after   17 cycles
 SCF Done:  E(RB3LYP) =  -896.860474172     A.U. after   17 cycles
 SCF Done:  E(RB3LYP) =  -896.881622864     A.U. after   16 cycles
 SCF Done:  E(RB3LYP) =  -896.879697170     A.U. after   18 cycles
 SCF Done:  E(RB3LYP) =  -896.894284042     A.U. after   17 cycles
 SCF Done:  E(RB3LYP) =  -896.896461666     A.U. after   17 cycles
 SCF Done:  E(RB3LYP) =  -896.895023381     A.U. after   17 cycles
 SCF Done:  E(RB3LYP) =  -896.902282832     A.U. after   17 cycles
 SCF Done:  E(RB3LYP) =  -896.904651697     A.U. after   17 cycles
 SCF Done:  E(RB3LYP) =  -896.918717046     A.U. after   15 cycles
 SCF Done:  E(RB3LYP) =  -896.918996182     A.U. after   16 cycles
 SCF Done:  E(RB3LYP) =  -896.919091027     A.U. after   15 cycles
 SCF Done:  E(RB3LYP) =  -896.919109595     A.U. after   14 cycles
 SCF Done:  E(RB3LYP) =  -896.919113653     A.U. after   13 cycles
 SCF Done:  E(RB3LYP) =  -896.919114609     A.U. after   12 cycles
 SCF Done:  E(RB3LYP) =  -896.919114945     A.U. after   12 cycles
 SCF Done:  E(RB3LYP) =  -896.919115098     A.U. after   11 cycles
 SCF Done:  E(RB3LYP) =  -896.919115138     A.U. after   10 cycles
 Optimization completed.
    -- Stationary point found.
 Normal termination of Gaussian 16 at Sat Sep 16 11:49:04 2023.

 ---------------------------------------------------------------------
 #N Geom=AllCheck Guess=TCheck SCRF=Check GenChk RB3LYP/6-31+G(d) Freq
 ---------------------------------------------------------------------

 Structure from the checkpoint file:  "molecule_79.chk"
 -------------
 ML molecule79
 -------------
 Charge =  0 Multiplicity = 1

                         Standard orientation:
 ---------------------------------------------------------------------
 Center     Atomic      Atomic             Coordinates (Angstroms)
 Number     Number       Type             X           Y           Z
 ---------------------------------------------------------------------
      1          6           0        3.266816   -0.567079   -0.015518
      2          6           0        2.086407   -1.304969    0.054993
      3          6           0        0.869371   -0.629250    0.054532
      4          6           0        0.851629    0.769598   -0.015591
      5          6           0        2.044923    1.522705   -0.087605
      6          6           0        3.251670    0.830557   -0.085938
      7          1           0        2.125652   -2.386299    0.108510
      8          1           0        4.191636    1.368059   -0.139388
      9          8           0       -0.302083    1.506883   -0.024437
     10          6           0       -1.535032    0.858062    0.065619
     11          6           0       -2.088818    0.600280    1.321958
     12          6           0       -2.223782    0.532289   -1.095848
     13          6           0       -3.343120    0.006337    1.409142
     14          6           0       -3.487445   -0.065444   -1.014129
     15          1           0       -1.775159    0.746558   -2.061268
     16          6           0       -4.049174   -0.331442    0.242280
     17          1           0       -3.799000   -0.203329    2.371755
     18          1           0       -4.013965   -0.311262   -1.928960
     19          1           0       -0.061122   -1.182442    0.107965
     20          1           0       -1.534427    0.868075    2.216441
     21          7           0        4.551747   -1.268863   -0.016097
     22          8           0        5.582513   -0.591579   -0.079870
     23          8           0        4.538651   -2.502226    0.046961
     24          8           0       -5.269945   -0.909470    0.439829
     25          6           0       -6.043399   -1.276153   -0.697222
     26          1           0       -5.520525   -2.021282   -1.311922
     27          1           0       -6.962212   -1.712113   -0.301750
     28          1           0       -6.289672   -0.399599   -1.311538
     29          6           0        1.984095    3.026569   -0.162168
     30          1           0        1.421522    3.354814   -1.044302
     31          1           0        1.468030    3.443556    0.710851
     32          1           0        2.989070    3.456074   -0.210595
 ---------------------------------------------------------------------

 SCF Done:  E(RB3LYP) =  -896.919115138     A.U. after    1 cycles

 The electronic state is 1-A.
 Alpha  occ. eigenvalues --  -19.21866 -19.20459 -19.18616 -19.18598 -14.57419
 Alpha  occ. eigenvalues --  -10.28471 -10.27459 -10.26726 -10.26006 -10.25306
 Alpha  occ. eigenvalues --  -10.22644 -10.22585 -10.22270 -10.22029 -10.21934
 Alpha  occ. eigenvalues --  -10.21869 -10.21831 -10.21424 -10.20000  -1.22504
 Alpha  occ. eigenvalues --   -1.10627  -1.08788  -1.05201  -0.89784  -0.87760
 Alpha  occ. eigenvalues --   -0.82093  -0.79425  -0.78150  -0.77405  -0.72732
 Alpha  occ. eigenvalues --   -0.71445  -0.69412  -0.64830  -0.64195  -0.61478
 Alpha  occ. eigenvalues --   -0.58909  -0.56953  -0.55585  -0.54800  -0.53195
 Alpha  occ. eigenvalues --   -0.52604  -0.51834  -0.49943  -0.48893  -0.47700
 Alpha  occ. eigenvalues --   -0.46878  -0.46167  -0.45766  -0.45164  -0.43841
 Alpha  occ. eigenvalues --   -0.43655  -0.42775  -0.41576  -0.40646  -0.40009
 Alpha  occ. eigenvalues --   -0.39390  -0.38727  -0.36851  -0.35965  -0.35006
 Alpha  occ. eigenvalues --   -0.33652  -0.31342  -0.31266  -0.29369  -0.28300
 Alpha  occ. eigenvalues --   -0.27618  -0.25430  -0.24206
 Alpha virt. eigenvalues --   -0.09380  -0.04131  -0.02793  -0.01970  -0.00989
 Alpha virt. eigenvalues --   -0.00089   0.00090   0.00979   0.01515   0.01750
 Alpha virt. eigenvalues --    0.02338   0.03223   0.03383   0.03688   0.04330

 Mulliken charges:
               1
     1  C   -0.221505
     2  C   -0.725123
     3  C    0.451839
     4  C   -0.531900
     5  C    0.471255
     6  C    0.146359
     7  H    0.229989
     8  H    0.224737
     9  O   -0.305504
    10  C    0.154972
    11  C   -0.076392
    12  C   -0.442685
    13  C   -0.243968
    14  C    0.450021
    15  H    0.194318
    16  C   -0.030920
    17  H    0.200148
    18  H    0.185013
    19  H    0.219559
    20  H    0.196215
    21  N   -0.357710
    22  O   -0.022149
    23  O   -0.031340
    24  O   -0.386305
    25  C   -0.322335
    26  H    0.205711
    27  H    0.213164
    28  H    0.205850
    29  C   -0.726823
    30  H    0.231875
    31  H    0.232477
    32  H    0.211158
 Sum of Mulliken charges =   0.00000

 Dipole moment (field-independent basis, Debye):
    X=             -7.1044    Y=              1.7779    Z=             -1.1529  Tot=              7.4137
 Quadrupole moment (field-independent basis, Debye-Ang):
   XX=           -129.4635   YY=           -113.6412   ZZ=           -105.6603
   XY=             19.7129   XZ=              7.6392   YZ=              1.5520

  Exact polarizability: 280.423   6.122 175.224   1.124  -1.314 135.543
 Approx polarizability: 375.003  19.313 297.096  -3.490  -5.921 226.531

                      1                      2                      3
                      A                      A                      A
 Frequencies --     14.1155                33.1608                40.2674
 Red. masses --      4.5272                 4.6462                 5.5298
 Frc consts  --      0.0005                 0.0030                 0.0053
 IR Inten    --      0.4042                 0.3110                 0.3016

                      4                      5                      6
                      A                      A                      A
 Frequencies --     58.1791                89.8632                98.1276
 Red. masses --      7.4970                 3.6859                 6.8926
 Frc consts  --      0.0150                 0.0175                 0.0391
 IR Inten    --      0.0866                 3.2735                 2.9266

                      7                      8                      9
                      A                      A                      A
 Frequencies --    142.2512               158.2568               195.4170
 Red. masses --      1.0693                 5.0532                 3.5681
 Frc consts  --      0.0127                 0.0746                 0.0803
 IR Inten    --      0.3449                 1.4169                 0.1113

                     10                     11                     12
                      A                      A                      A
 Frequencies --    197.9066               222.1583               245.0678
 Red. masses --      4.2396                 3.9695                 3.7602
 Frc consts  --      0.0978                 0.1154                 0.1331
 IR Inten    --      0.3976                 1.9237                 2.5498

                     13                     14                     15
                      A                      A                      A
 Frequencies --    267.0808               313.9719               332.5297
 Red. masses --      1.2465                 5.3107                 5.1471
 Frc consts  --      0.0524                 0.3084                 0.3353
 IR Inten    --      0.0736                 3.5642                 2.1429

                     16                     17                     18
                      A                      A                      A
 Frequencies --    393.4870               395.7519               426.7291
 Red. masses --      5.2475                 6.6033                 5.7711
 Frc consts  --      0.4787                 0.6093                 0.6192
 IR Inten    --      0.8122                 1.1956                 2.6884

                     19                     20                     21
                      A                      A                      A
 Frequencies --    434.1391               451.5221               477.3359
 Red. masses --      3.1121                 3.1761                 5.1119
 Frc consts  --      0.3456                 0.3815                 0.6862
 IR Inten    --      0.1837                 0.9989                 6.0256

                     22                     23                     24
                      A                      A                      A
 Frequencies --    514.5676               540.5522               546.2445
 Red. masses --      4.0844                 3.7171                 2.9487
 Frc consts  --      0.6372                 0.6399                 0.5184
 IR Inten    --      8.2902                 0.3867                 8.2130

                     25                     26                     27
                      A                      A                      A
 Frequencies --    553.5743               598.6325               650.0683
 Red. masses --      6.2481                 4.3377                 7.0698
 Frc consts  --      1.1281                 0.9159                 1.7603
 IR Inten    --      0.6108                12.5951                 0.5900

                     28                     29                     30
                      A                      A                      A
 Frequencies --    655.9756               701.3141               709.4178
 Red. masses --      6.6315                 4.2685                 4.4222
 Frc consts  --      1.6813                 1.2369                 1.3113
 IR Inten    --     10.0027                 0.2530                 5.4176

                     31                     32                     33
                      A                      A                      A
 Frequencies --    750.7368               758.4825               796.6363
 Red. masses --      6.4892                 4.5380                 5.0345
 Frc consts  --      2.1549                 1.5382                 1.8825
 IR Inten    --     21.8700                10.7202                18.4336

                     34                     35                     36
                      A                      A                      A
 Frequencies --    815.3767               817.4314               841.4801
 Red. masses --      2.2106                 2.1570                 1.4726
 Frc consts  --      0.8659                 0.8492                 0.6144
 IR Inten    --     16.7474                 2.7229                16.1515

                     37                     38                     39
                      A                      A                      A
 Frequencies --    859.0814               880.5440               926.7363
 Red. masses --      1.9054                 6.4262                 1.3733
 Frc consts  --      0.8285                 2.9357                 0.6949
 IR Inten    --     61.9079                 9.5402                14.9261

                     40                     41                     42
                      A                      A                      A
 Frequencies --    943.3241               949.1150               964.5119
 Red. masses --      1.3542                 5.8621                 1.3234
 Frc consts  --      0.7100                 3.1113                 0.7254
 IR Inten    --      0.9094                41.6591                 0.0266

                     43                     44                     45
                      A                      A                      A
 Frequencies --    973.2333              1027.9926              1029.3128
 Red. masses --      1.3034                 2.5462                 1.5821
 Frc consts  --      0.7274                 1.5853                 0.9876
 IR Inten    --      1.4677                 8.6753                 3.0797

                     46                     47                     48
                      A                      A                      A
 Frequencies --   1065.4665              1074.9601              1124.9703
 Red. masses --      6.5203                 1.4811                 1.9325
 Frc consts  --      4.3611                 1.0084                 1.4410
 IR Inten    --     62.9788                 1.5529               153.8006

                     49                     50                     51
                      A                      A                      A
 Frequencies --   1136.8596              1173.8191              1180.8447
 Red. masses --      1.2872                 1.8712                 1.2695
 Frc consts  --      0.9802                 1.5190                 1.0430
 IR Inten    --     13.0899                 7.9382                 1.0857

                     52                     53                     54
                      A                      A                      A
 Frequencies --   1192.6878              1212.6056              1215.5284
 Red. masses --      1.2169                 1.9585                 1.4679
 Frc consts  --      1.0199                 1.6967                 1.2778
 IR Inten    --      3.3414                15.5919                53.8978

                     55                     56                     57
                      A                      A                      A
 Frequencies --   1237.0668              1274.6232              1298.8433
 Red. masses --      3.4088                 4.1854                 4.9357
 Frc consts  --      3.0736                 4.0064                 4.9058
 IR Inten    --    195.6289               822.1169                62.3110

                     58                     59                     60
                      A                      A                      A
 Frequencies --   1311.9635              1330.0773              1352.9568
 Red. masses --      1.4597                 1.3045                 8.8682
 Frc consts  --      1.4803                 1.3597                 9.5643
 IR Inten    --      4.1035                 3.3470                21.3496

                     61                     62                     63
                      A                      A                      A
 Frequencies --   1372.6124              1380.6372              1443.0993
 Red. masses --     11.1089                 8.0635                 1.2637
 Frc consts  --     12.3316                 9.0559                 1.5506
 IR Inten    --    491.8442                11.5378                 2.5049

                     64                     65                     66
                      A                      A                      A
 Frequencies --   1454.3899              1457.4756              1493.4136
 Red. masses --      3.0005                 3.1390                 1.1840
 Frc consts  --      3.7394                 3.9287                 1.5559
 IR Inten    --      2.7127                 0.5636                28.9207

                     67                     68                     69
                      A                      A                      A
 Frequencies --   1500.4290              1512.6358              1519.0104
 Red. masses --      1.0431                 1.4183                 1.0458
 Frc consts  --      1.3836                 1.9120                 1.4217
 IR Inten    --      9.5196                26.2115                 8.6479

                     70                     71                     72
                      A                      A                      A
 Frequencies --   1525.5726              1531.4625              1550.1229
 Red. masses --      1.0980                 1.8194                 2.3974
 Frc consts  --      1.5056                 2.5141                 3.3941
 IR Inten    --    110.0898               169.1278               189.3113

                     73                     74                     75
                      A                      A                      A
 Frequencies --   1582.9733              1633.8899              1638.7879
 Red. masses --     12.2003                 6.8530                 6.0836
 Frc consts  --     18.0122                10.7790                 9.6262
 IR Inten    --    227.0078                 5.9253               104.5618

                     76                     77                     78
                      A                      A                      A
 Frequencies --   1655.7696              1662.7783              3021.7239
 Red. masses --      7.7127                 5.9348                 1.0345
 Frc consts  --     12.4582                 9.6677                 5.5654
 IR Inten    --     39.3347                33.8547                58.8330

                     79                     80                     81
                      A                      A                      A
 Frequencies --   3046.7967              3083.1013              3099.0224
 Red. masses --      1.0365                 1.1070                 1.1003
 Frc consts  --      5.6688                 6.1995                 6.2262
 IR Inten    --     24.1252                38.0816                11.7393

                     82                     83                     84
                      A                      A                      A
 Frequencies --   3130.5868              3159.5213              3203.6569
 Red. masses --      1.1027                 1.0997                 1.0886
 Frc consts  --      6.3673                 6.4680                 6.5827
 IR Inten    --     18.4951                22.1088                10.6770

                     85                     86                     87
                      A                      A                      A
 Frequencies --   3205.7065              3219.0315              3226.3936
 Red. masses --      1.0899                 1.0951                 1.0893
 Frc consts  --      6.5994                 6.6857                 6.6811
 IR Inten    --      3.2990                 2.9805                 1.5774

                     88                     89                     90
                      A                      A                      A
 Frequencies --   3228.7668              3233.1305              3245.7769
 Red. masses --      1.0925                 1.0911                 1.0937
 Frc consts  --      6.7104                 6.7200                 6.7886
 IR Inten    --      5.9862                 1.2172                 1.4693

 - Thermochemistry -
 -------------------
 Temperature   298.150 Kelvin.  Pressure   1.00000 Atm.
 Atom     1 has atomic number  6 and mass  12.00000

 Molecular mass:   259.08446 amu.
 Principal axes and moments of inertia in atomic units:
                           1         2         3
     Eigenvalues --  1983.66767********************
           X            0.99986   0.01618   0.00495
           Y           -0.01621   0.99985   0.00577
           Z           -0.00486  -0.00585   0.99997
 This molecule is an asymmetric top.
 Rotational symmetry number  1.
 Warning -- assumption of classical behavior for rotation
           may cause significant error
 Rotational temperatures (Kelvin)      0.04366     0.00727     0.00659
 Rotational constants (GHZ):           0.90980     0.15141     0.13726
 Zero-point vibrational energy     651924.2 (Joules/Mol)
                                  155.81362 (Kcal/Mol)
 Warning -- explicit consideration of  26 degrees of freedom as
           vibrations may cause significant error
 Vibrational temperatures:     20.31    47.71    57.94    83.71   129.29
          (Kelvin)            141.18   204.67   227.70   281.16   284.74
                              319.64   352.60   384.27   451.74   478.44
                              566.14   569.40   613.97   624.63   649.64
                              686.78   740.35   777.73   785.92   796.47
                              861.30   935.30   943.80  1009.03  1020.69
                             1080.14  1091.29  1146.18  1173.15  1176.10
                             1210.70  1236.03  1266.91  1333.37  1357.23
                             1365.56  1387.72  1400.27  1479.05  1480.95
                             1532.97  1546.63  1618.58  1635.69  1688.86
                             1698.97  1716.01  1744.67  1748.87  1779.86
                             1833.90  1868.75  1887.62  1913.68  1946.60
                             1974.88  1986.43  2076.30  2092.54  2096.98
                             2148.69  2158.78  2176.35  2185.52  2194.96
                             2203.43  2230.28  2277.55  2350.80  2357.85
                             2382.28  2392.37  4347.59  4383.66  4435.90
                             4458.80  4504.22  4545.85  4609.35  4612.30
                             4631.47  4642.06  4645.48  4651.75  4669.95

 Zero-point correction=                           0.248305 (Hartree/Particle)
 Thermal correction to Energy=                    0.265126
 Thermal correction to Enthalpy=                  0.266070
 Thermal correction to Gibbs Free Energy=         0.201213
 Sum of electronic and zero-point Energies=           -896.670810
 Sum of electronic and thermal Energies=              -896.653989
 Sum of electronic and thermal Enthalpies=            -896.653045
 Sum of electronic and thermal Free Energies=         -896.717902

                     E (Thermal)             CV                S
                      KCal/Mol        Cal/Mol-Kelvin    Cal/Mol-Kelvin
 Total                  166.369             63.631            136.502
 Electronic               0.000              0.000              0.000
 Translational            0.889              2.981             42.556
 Rotational               0.889              2.981             34.096
 Vibrational            164.591             57.669             59.850
 Vibration     1          0.593              1.986              7.326
 Vibration     2          0.594              1.983              5.631
 Vibration     3          0.594              1.981              5.246
 Vibration     4          0.596              1.974              4.518
 Vibration     5          0.602              1.956              3.663
 Vibration     6          0.604              1.950              3.491
 Vibration     7          0.616              1.911              2.773
 Vibration     8          0.621              1.893              2.571
 Vibration     9          0.636              1.846              2.176
 Vibration    10          0.637              1.843              2.152
 Vibration    11          0.648              1.807              1.941
 Vibration    12          0.660              1.771              1.766
 Vibration    13          0.672              1.734              1.615
 Vibration    14          0.702              1.647              1.341
 Vibration    15          0.714              1.611              1.248
 Vibration    16          0.761              1.484              0.987
 Vibration    17          0.762              1.479              0.978
 Vibration    18          0.788              1.412              0.869
 Vibration    19          0.795              1.396              0.845
 Vibration    20          0.810              1.358              0.791
 Vibration    21          0.834              1.300              0.717
 Vibration    22          0.870              1.218              0.623
 Vibration    23          0.896              1.160              0.564
 Vibration    24          0.901              1.148              0.552
 Vibration    25          0.909              1.132              0.537
 Vibration    26          0.957              1.035              0.452

 Optimization completed.
    -- Stationary point found.
 Normal termination of Gaussian 16 at Sat Sep 16 11:57:08 2023.
