 Gaussian 16, Revision B.01,
 Gaussian 16:  EM64L-G16RevB.01 20-Dec-2017

 ----------------------------------------------------------------------
 # opt freq b3lyp/6-31+g(d) empiricaldispersion=gd3 scf=maxcycle=1000 v
 olume
 ----------------------------------------------------------------------

 -------------------
 Title Card Required
 -------------------
 Symbolic Z-matrix:
 Charge =  0 Multiplicity = 1

 SCF Done:  E(RB3LYP) =  -307.671125450     A.U. after   10 cycles
 SCF Done:  E(RB3LYP) =  -307.671126311     A.U. after    7 cycles
 SCF Done:  E(RB3LYP) =  -307.671126605     A.U. after    7 cycles
 SCF Done:  E(RB3LYP) =  -307.671126926     A.U. after    7 cycles
 Optimization completed.
    -- Stationary point found.
 Normal termination of Gaussian 16 at Fri Sep 15 07:29:20 2023.

 ---------------------------------------------------------------------
 #N Geom=AllCheck Guess=TCheck SCRF=Check GenChk RB3LYP/6-31+G(d) Freq
 ---------------------------------------------------------------------

 Structure from the checkpoint file:  "MOLECULE_1 (1)-vol.chk"
 -------------------
 Title Card Required
 -------------------
 Charge =  0 Multiplicity = 1

                         Standard orientation:
 ---------------------------------------------------------------------
 Center     Atomic      Atomic             Coordinates (Angstroms)
 Number     Number       Type             X           Y           Z
 ---------------------------------------------------------------------
      1          6           0       -1.146203    0.672087   -0.354044
      2          6           0       -1.143713   -0.675632    0.354499
      3          6           0        1.146231   -0.672142   -0.353860
      4          6           0        1.143732    0.675688    0.354361
      5          1           0       -2.031116    1.251957   -0.069912
      6          1           0       -2.027159   -1.258264    0.071495
      7          1           0        2.031100   -1.252044   -0.069653
      8          1           0        2.027144    1.258337    0.071275
      9          8           0        0.002127   -1.458372   -0.000396
     10          8           0       -0.002129    1.458368   -0.000858
     11          1           0        1.166448    0.523506    1.444434
     12          1           0        1.169684   -0.519707   -1.443864
     13          1           0       -1.166579   -0.523169    1.444551
     14          1           0       -1.169788    0.519408   -1.444030
 ---------------------------------------------------------------------

 SCF Done:  E(RB3LYP) =  -307.671126926     A.U. after    1 cycles

 The electronic state is 1-A.
 Alpha  occ. eigenvalues --  -19.16099 -19.16099 -10.24301 -10.24300 -10.24278
 Alpha  occ. eigenvalues --  -10.24277  -1.05635  -1.01985  -0.78654  -0.70786
 Alpha  occ. eigenvalues --   -0.68027  -0.55980  -0.52527  -0.51400  -0.49782
 Alpha  occ. eigenvalues --   -0.43772  -0.42955  -0.40501  -0.40489  -0.39218
 Alpha  occ. eigenvalues --   -0.37837  -0.29414  -0.27053  -0.25626
 Alpha virt. eigenvalues --    0.00641   0.02132   0.02236   0.03374   0.03882
 Alpha virt. eigenvalues --    0.05769   0.06010   0.06156   0.07674   0.08855
 Alpha virt. eigenvalues --    0.09222   0.09993   0.10383   0.13374   0.13382

 Mulliken charges:
               1
     1  C   -0.209660
     2  C   -0.209765
     3  C   -0.209638
     4  C   -0.209747
     5  H    0.193839
     6  H    0.193885
     7  H    0.193850
     8  H    0.193896
     9  O   -0.354897
    10  O   -0.354898
    11  H    0.193269
    12  H    0.193315
    13  H    0.193252
    14  H    0.193299
 Sum of Mulliken charges =   0.00000

 Dipole moment (field-independent basis, Debye):
    X=              0.0004    Y=              0.0000    Z=              0.0034  Tot=              0.0035
 Quadrupole moment (field-independent basis, Debye-Ang):
   XX=            -31.0554   YY=            -45.2391   ZZ=            -36.4263
   XY=              0.0219   XZ=              0.0000   YZ=              0.0015

  Exact polarizability:  59.098   0.014  49.772   0.000  -0.001  48.340
 Approx polarizability:  73.906   0.014  66.391   0.000  -0.001  67.093

                      1                      2                      3
                      A                      A                      A
 Frequencies --    118.0622               290.4323               302.4152
 Red. masses --      3.1741                 2.1340                 1.7634
 Frc consts  --      0.0261                 0.1061                 0.0950
 IR Inten    --     21.5881                 2.7871                 0.0003

                      4                      5                      6
                      A                      A                      A
 Frequencies --    463.5142               507.0444               601.3523
 Red. masses --      7.7534                 2.7701                 1.6374
 Frc consts  --      0.9814                 0.4196                 0.3489
 IR Inten    --      0.0000                 2.5327                 1.9629

                      7                      8                      9
                      A                      A                      A
 Frequencies --    832.3919               875.2429               876.8508
 Red. masses --      4.1408                 3.8683                 1.6354
 Frc consts  --      1.6904                 1.7459                 0.7408
 IR Inten    --      0.0000                74.4687                 3.4153

                     10                     11                     12
                      A                      A                      A
 Frequencies --    889.7611              1023.8752              1076.4489
 Red. masses --      2.3135                 2.1969                 2.1524
 Frc consts  --      1.0791                 1.3570                 1.4695
 IR Inten    --     32.4199                 0.0000                 0.6706

                     13                     14                     15
                      A                      A                      A
 Frequencies --   1113.0749              1142.7946              1148.2662
 Red. masses --      2.1053                 1.9108                 4.8992
 Frc consts  --      1.5368                 1.4703                 3.8059
 IR Inten    --     19.7491                 0.0015                26.9988

                     16                     17                     18
                      A                      A                      A
 Frequencies --   1155.9416              1245.4974              1277.6420
 Red. masses --      4.5591                 1.1610                 1.1307
 Frc consts  --      3.5892                 1.0611                 1.0875
 IR Inten    --    184.2381                 8.5516                 0.7932

                     19                     20                     21
                      A                      A                      A
 Frequencies --   1285.5992              1313.0371              1372.4468
 Red. masses --      1.2237                 1.1247                 1.2191
 Frc consts  --      1.1916                 1.1425                 1.3529
 IR Inten    --     43.3435                 0.0000                 0.0570

                     22                     23                     24
                      A                      A                      A
 Frequencies --   1415.2461              1416.2783              1436.4113
 Red. masses --      1.2663                 1.3032                 1.4381
 Frc consts  --      1.4944                 1.5402                 1.7482
 IR Inten    --     17.3811                 5.9986                 0.0000

                     25                     26                     27
                      A                      A                      A
 Frequencies --   1522.6396              1523.5629              1537.8337
 Red. masses --      1.0958                 1.0896                 1.0802
 Frc consts  --      1.4969                 1.4902                 1.5052
 IR Inten    --      5.5304                 0.0376                 4.0216

                     28                     29                     30
                      A                      A                      A
 Frequencies --   1543.1921              2995.7474              3011.9588
 Red. masses --      1.0884                 1.0717                 1.0743
 Frc consts  --      1.5272                 5.6667                 5.7423
 IR Inten    --      0.0010                50.3484                 0.0221

                     31                     32                     33
                      A                      A                      A
 Frequencies --   3012.4031              3019.2691              3089.6129
 Red. masses --      1.0678                 1.0638                 1.0986
 Frc consts  --      5.7093                 5.7137                 6.1788
 IR Inten    --      0.2412               163.8788                25.3964

                     34                     35                     36
                      A                      A                      A
 Frequencies --   3091.4673              3092.7242              3094.2370
 Red. masses --      1.0908                 1.1021                 1.0920
 Frc consts  --      6.1424                 6.2106                 6.1598
 IR Inten    --    113.9962                31.7180                 0.0352

 - Thermochemistry -
 -------------------
 Temperature   298.150 Kelvin.  Pressure   1.00000 Atm.
 Atom     1 has atomic number  6 and mass  12.00000

 Molecular mass:    88.05243 amu.
 Principal axes and moments of inertia in atomic units:
                           1         2         3
     Eigenvalues --   355.23288 399.00489 651.03305
           X           -0.00171   1.00000  -0.00001
           Y            1.00000   0.00171   0.00015
           Z           -0.00015   0.00001   1.00000
 This molecule is an asymmetric top.
 Rotational symmetry number  1.
 Rotational temperatures (Kelvin)      0.24382     0.21707     0.13304
 Rotational constants (GHZ):           5.08045     4.52311     2.77212
 Zero-point vibrational energy     321282.7 (Joules/Mol)
                                   76.78841 (Kcal/Mol)
 Warning -- explicit consideration of   6 degrees of freedom as
           vibrations may cause significant error
 Vibrational temperatures:    169.87   417.87   435.11   666.89   729.52
          (Kelvin)            865.21  1197.63  1259.28  1261.59  1280.17
                             1473.13  1548.77  1601.47  1644.23  1652.10
                             1663.14  1791.99  1838.24  1849.69  1889.17
                             1974.64  2036.22  2037.71  2066.68  2190.74
                             2192.07  2212.60  2220.31  4310.21  4333.54
                             4334.18  4344.05  4445.26  4447.93  4449.74
                             4451.92

 Zero-point correction=                           0.122370 (Hartree/Particle)
 Thermal correction to Energy=                    0.127868
 Thermal correction to Enthalpy=                  0.128812
 Thermal correction to Gibbs Free Energy=         0.093441
 Sum of electronic and zero-point Energies=           -307.548757
 Sum of electronic and thermal Energies=              -307.543259
 Sum of electronic and thermal Enthalpies=            -307.542315
 Sum of electronic and thermal Free Energies=         -307.577686

                     E (Thermal)             CV                S
                      KCal/Mol        Cal/Mol-Kelvin    Cal/Mol-Kelvin
 Total                   80.238             19.988             74.446
 Electronic               0.000              0.000              0.000
 Translational            0.889              2.981             39.339
 Rotational               0.889              2.981             26.026
 Vibrational             78.461             14.026              9.081
 Vibration     1          0.608              1.934              3.132
 Vibration     2          0.686              1.692              1.471
 Vibration     3          0.694              1.669              1.403
 Vibration     4          0.821              1.331              0.756
 Vibration     5          0.862              1.234              0.641
 Vibration     6          0.960              1.029              0.447

                           ! Non-Optimized Parameters !
 Normal termination of Gaussian 16 at Fri Sep 15 07:29:50 2023.
