 Gaussian 16, Revision B.01,
 Gaussian 16:  EM64L-G16RevB.01 20-Dec-2017

 ----------------------------------------------------------------------
 # opt freq b3lyp/6-31+g(d) empiricaldispersion=gd3 scf=maxcycle=1000 v
 olume
 ----------------------------------------------------------------------

 -------------------
 Title Card Required
 -------------------
 Symbolic Z-matrix:
 Charge =  0 Multiplicity = 1

 SCF Done:  E(RB3LYP) =  -155.048832994     A.U. after   10 cycles
 Optimization completed.
    -- Stationary point found.
 Normal termination of Gaussian 16 at Fri Sep 15 07:32:34 2023.

 ---------------------------------------------------------------------
 #N Geom=AllCheck Guess=TCheck SCRF=Check GenChk RB3LYP/6-31+G(d) Freq
 ---------------------------------------------------------------------

 Structure from the checkpoint file:  "MOLECULE_7-vol.chk"
 -------------------
 Title Card Required
 -------------------
 Charge =  0 Multiplicity = 1

                         Standard orientation:
 ---------------------------------------------------------------------
 Center     Atomic      Atomic             Coordinates (Angstroms)
 Number     Number       Type             X           Y           Z
 ---------------------------------------------------------------------
      1          6           0        1.223761   -0.224489    0.000006
      2          6           0       -0.081792    0.553329   -0.000006
      3          1           0        1.287494   -0.863208   -0.887832
      4          1           0        2.079179    0.461810   -0.000042
      5          1           0        1.287528   -0.863131    0.887897
      6          1           0       -0.140370    1.198820    0.890623
      7          1           0       -0.140360    1.198814   -0.890638
      8          8           0       -1.153185   -0.397576   -0.000013
      9          1           0       -1.999803    0.074466    0.000095
 ---------------------------------------------------------------------

 SCF Done:  E(RB3LYP) =  -155.048832994     A.U. after    1 cycles

 The electronic state is 1-A.
 Alpha  occ. eigenvalues --  -19.15727 -10.23851 -10.17952  -1.02247  -0.75268
 Alpha  occ. eigenvalues --   -0.61556  -0.52210  -0.46883  -0.40515  -0.38724
 Alpha  occ. eigenvalues --   -0.36922  -0.33762  -0.27835
 Alpha virt. eigenvalues --    0.00031   0.02617   0.03768   0.04798   0.07421
 Alpha virt. eigenvalues --    0.08002   0.08537   0.13298   0.15716   0.18039
 Alpha virt. eigenvalues --    0.18301   0.19275   0.21096   0.23071   0.24984

 Mulliken charges:
               1
     1  C   -0.637535
     2  C   -0.116123
     3  H    0.212616
     4  H    0.194199
     5  H    0.212614
     6  H    0.170576
     7  H    0.170579
     8  O   -0.667460
     9  H    0.460534
 Sum of Mulliken charges =   0.00000

 Dipole moment (field-independent basis, Debye):
    X=             -0.1357    Y=              1.7975    Z=              0.0002  Tot=              1.8026
 Quadrupole moment (field-independent basis, Debye-Ang):
   XX=            -17.1977   YY=            -21.1926   ZZ=            -20.5885
   XY=             -2.2088   XZ=             -0.0005   YZ=              0.0000

  Exact polarizability:  32.523   0.028  29.440   0.000   0.000  27.414
 Approx polarizability:  37.993   0.851  37.425   0.000   0.000  35.381

                      1                      2                      3
                      A                      A                      A
 Frequencies --    250.1373               302.2923               420.2405
 Red. masses --      1.1539                 1.0690                 2.6578
 Frc consts  --      0.0425                 0.0576                 0.2765
 IR Inten    --     34.3996               116.9058                12.3474

                      4                      5                      6
                      A                      A                      A
 Frequencies --    834.5761               905.0622              1037.8431
 Red. masses --      1.0830                 2.3233                 2.2734
 Frc consts  --      0.4444                 1.1213                 1.4428
 IR Inten    --      0.0291                14.8376                69.1060

                      7                      8                      9
                      A                      A                      A
 Frequencies --   1105.7839              1185.4841              1275.1984
 Red. masses --      2.0703                 1.5004                 1.2680
 Frc consts  --      1.4915                 1.2423                 1.2149
 IR Inten    --     23.9781                 3.6001                75.3102

                     10                     11                     12
                      A                      A                      A
 Frequencies --   1306.5514              1418.3786              1462.7421
 Red. masses --      1.1138                 1.2300                 1.4132
 Frc consts  --      1.1203                 1.4579                 1.7815
 IR Inten    --      0.1415                 0.3664                18.9276

                     13                     14                     15
                      A                      A                      A
 Frequencies --   1505.6823              1523.0770              1544.6354
 Red. masses --      1.0394                 1.0460                 1.0916
 Frc consts  --      1.3884                 1.4296                 1.5345
 IR Inten    --      7.3315                 4.0667                 1.6495

                     16                     17                     18
                      A                      A                      A
 Frequencies --   2991.5543              3019.0060              3048.9846
 Red. masses --      1.0549                 1.1086                 1.0352
 Frc consts  --      5.5624                 5.9534                 5.6701
 IR Inten    --     76.7469                59.0429                18.0183

                     19                     20                     21
                      A                      A                      A
 Frequencies --   3117.2269              3125.4499              3756.0120
 Red. masses --      1.1016                 1.1036                 1.0667
 Frc consts  --      6.3070                 6.3517                 8.8662
 IR Inten    --     31.5450                34.1950                20.7128

 - Thermochemistry -
 -------------------
 Temperature   298.150 Kelvin.  Pressure   1.00000 Atm.
 Atom     1 has atomic number  6 and mass  12.00000

 Molecular mass:    46.04186 amu.
 Principal axes and moments of inertia in atomic units:
                           1         2         3
     Eigenvalues --    51.82513 193.65414 222.71157
           X            0.99911  -0.04211   0.00000
           Y            0.04211   0.99911   0.00000
           Z            0.00000   0.00000   1.00000
 This molecule is an asymmetric top.
 Rotational symmetry number  1.
 Rotational temperatures (Kelvin)      1.67127     0.44726     0.38891
 Rotational constants (GHZ):          34.82367     9.31940     8.10349
 Zero-point vibrational energy     210159.5 (Joules/Mol)
                                   50.22932 (Kcal/Mol)
 Warning -- explicit consideration of   3 degrees of freedom as
           vibrations may cause significant error
 Vibrational temperatures:    359.89   434.93   604.63  1200.77  1302.18
          (Kelvin)           1493.22  1590.98  1705.65  1834.73  1879.84
                             2040.73  2104.56  2166.34  2191.37  2222.39
                             4304.18  4343.68  4386.81  4484.99  4496.83
                             5404.06

 Zero-point correction=                           0.080046 (Hartree/Particle)
 Thermal correction to Energy=                    0.084317
 Thermal correction to Enthalpy=                  0.085261
 Thermal correction to Gibbs Free Energy=         0.054671
 Sum of electronic and zero-point Energies=           -154.968787
 Sum of electronic and thermal Energies=              -154.964516
 Sum of electronic and thermal Enthalpies=            -154.963572
 Sum of electronic and thermal Free Energies=         -154.994162

                     E (Thermal)             CV                S
                      KCal/Mol        Cal/Mol-Kelvin    Cal/Mol-Kelvin
 Total                   52.910             13.433             64.382
 Electronic               0.000              0.000              0.000
 Translational            0.889              2.981             37.406
 Rotational               0.889              2.981             22.329
 Vibrational             51.132              7.471              4.647
 Vibration     1          0.663              1.763              1.730
 Vibration     2          0.694              1.669              1.404
 Vibration     3          0.783              1.426              0.891

 Optimization completed.
    -- Stationary point found.
 Normal termination of Gaussian 16 at Fri Sep 15 07:32:42 2023.
