 Gaussian 16, Revision B.01,
 Gaussian 16:  EM64L-G16RevB.01 20-Dec-2017

 ----------------------------------------------------------------------
 # opt freq b3lyp/6-31+g(d) empiricaldispersion=gd3 scf=maxcycle=1000 v
 olume
 ----------------------------------------------------------------------

 -------------------
 Title Card Required
 -------------------
 Symbolic Z-matrix:
 Charge =  0 Multiplicity = 1

 SCF Done:  E(RB3LYP) =  -132.762757610     A.U. after   11 cycles
 Optimization completed.
    -- Stationary point found.
 Normal termination of Gaussian 16 at Fri Sep 15 07:29:52 2023.

 ---------------------------------------------------------------------
 #N Geom=AllCheck Guess=TCheck SCRF=Check GenChk RB3LYP/6-31+G(d) Freq
 ---------------------------------------------------------------------

 Structure from the checkpoint file:  "MOLECULE_2-vol.chk"
 -------------------
 Title Card Required
 -------------------
 Charge =  0 Multiplicity = 1

                         Standard orientation:
 ---------------------------------------------------------------------
 Center     Atomic      Atomic             Coordinates (Angstroms)
 Number     Number       Type             X           Y           Z
 ---------------------------------------------------------------------
      1          7           0        0.000000    0.000000    1.441715
      2          6           0        0.000000    0.000000    0.280620
      3          6           0        0.000000    0.000000   -1.182336
      4          1           0        0.000000    1.027614   -1.560569
      5          1           0        0.889940   -0.513807   -1.560569
      6          1           0       -0.889940   -0.513807   -1.560569
 ---------------------------------------------------------------------

 SCF Done:  E(RB3LYP) =  -132.762757610     A.U. after    1 cycles

 The electronic state is 1-A1.
 Alpha  occ. eigenvalues --  -14.34720 -10.24769 -10.24386  -0.91485  -0.78479
 Alpha  occ. eigenvalues --   -0.52482  -0.47201  -0.47201  -0.37063  -0.33756
 Alpha  occ. eigenvalues --   -0.33756
 Alpha virt. eigenvalues --   -0.00959   0.02123   0.02123   0.03493   0.04555
 Alpha virt. eigenvalues --    0.04555   0.08496   0.09406   0.09406   0.13866
 Alpha virt. eigenvalues --    0.17975   0.18106   0.18106   0.23017   0.23017

 Mulliken charges:
               1
     1  N   -0.495523
     2  C    0.553344
     3  C   -0.808661
     4  H    0.250280
     5  H    0.250280
     6  H    0.250280
 Sum of Mulliken charges =   0.00000

 Dipole moment (field-independent basis, Debye):
    X=              0.0000    Y=              0.0000    Z=             -4.0657  Tot=              4.0657
 Quadrupole moment (field-independent basis, Debye-Ang):
   XX=            -17.8076   YY=            -17.8076   ZZ=            -21.1446
   XY=              0.0000   XZ=              0.0000   YZ=              0.0000

  Exact polarizability:  20.302   0.000  20.302   0.000   0.000  38.672
 Approx polarizability:  26.079   0.000  26.079   0.000   0.000  60.012

                      1                      2                      3
                      E                      E                     A1
 Frequencies --    378.8629               378.8632               927.8605
 Red. masses --      3.8435                 3.8435                 4.6514
 Frc consts  --      0.3250                 0.3250                 2.3594
 IR Inten    --      0.1903                 0.1903                 1.9035

                      4                      5                      6
                      E                      E                     A1
 Frequencies --   1071.6205              1071.6205              1431.4189
 Red. masses --      1.4373                 1.4373                 1.2281
 Frc consts  --      0.9725                 0.9725                 1.4825
 IR Inten    --      2.0838                 2.0837                 2.5643

                      7                      8                      9
                      E                      E                     A1
 Frequencies --   1494.9471              1494.9471              2364.1529
 Red. masses --      1.0391                 1.0391                12.5530
 Frc consts  --      1.3683                 1.3683                41.3379
 IR Inten    --     12.1679                12.1681                10.8021

                     10                     11                     12
                     A1                      E                      E
 Frequencies --   3059.4500              3133.6334              3133.6335
 Red. masses --      1.0337                 1.1030                 1.1030
 Frc consts  --      5.7009                 6.3812                 6.3812
 IR Inten    --      3.9970                 1.2879                 1.2878

 - Thermochemistry -
 -------------------
 Temperature   298.150 Kelvin.  Pressure   1.00000 Atm.
 Atom     1 has atomic number  7 and mass  14.00307

 Molecular mass:    41.02655 amu.
 Principal axes and moments of inertia in atomic units:
                           1         2         3
     Eigenvalues --    11.40156 197.33249 197.33249
           X            0.00000   0.51629   0.85641
           Y            0.00000   0.85641  -0.51629
           Z            1.00000   0.00000   0.00000
 This molecule is a prolate symmetric top.
 Rotational symmetry number  3.
 Rotational temperatures (Kelvin)      7.59668     0.43892     0.43892
 Rotational constants (GHZ):         158.28902     9.14569     9.14569
 Zero-point vibrational energy     119273.7 (Joules/Mol)
                                   28.50711 (Kcal/Mol)
 Warning -- explicit consideration of   2 degrees of freedom as
           vibrations may cause significant error
 Vibrational temperatures:    545.10   545.10  1334.98  1541.82  1541.82
          (Kelvin)           2059.49  2150.90  2150.90  3401.49  4401.87
                             4508.60  4508.60

 Zero-point correction=                           0.045429 (Hartree/Particle)
 Thermal correction to Energy=                    0.049044
 Thermal correction to Enthalpy=                  0.049988
 Thermal correction to Gibbs Free Energy=         0.022433
 Sum of electronic and zero-point Energies=           -132.717329
 Sum of electronic and thermal Energies=              -132.713714
 Sum of electronic and thermal Enthalpies=            -132.712770
 Sum of electronic and thermal Free Energies=         -132.740325

                     E (Thermal)             CV                S
                      KCal/Mol        Cal/Mol-Kelvin    Cal/Mol-Kelvin
 Total                   30.775             10.316             57.995
 Electronic               0.000              0.000              0.000
 Translational            0.889              2.981             37.062
 Rotational               0.889              2.981             18.540
 Vibrational             28.998              4.355              2.392
 Vibration     1          0.749              1.515              1.044
 Vibration     2          0.749              1.515              1.044

 Optimization completed.
    -- Stationary point found.
 Normal termination of Gaussian 16 at Fri Sep 15 07:29:56 2023.
