 Gaussian 16, Revision B.01,
 Gaussian 16:  EM64L-G16RevB.01 20-Dec-2017

 ----------------------------------------------------------------------
 # opt freq b3lyp/6-31+g(d) empiricaldispersion=gd3 scf=maxcycle=1000 v
 olume
 ----------------------------------------------------------------------

 -------------------
 Title Card Required
 -------------------
 Symbolic Z-matrix:
 Charge =  0 Multiplicity = 1

 SCF Done:  E(RB3LYP) =  -76.4225825001     A.U. after   10 cycles
 Optimization completed.
    -- Stationary point found.
 Normal termination of Gaussian 16 at Fri Sep 15 07:34:47 2023.

 ---------------------------------------------------------------------
 #N Geom=AllCheck Guess=TCheck SCRF=Check GenChk RB3LYP/6-31+G(d) Freq
 ---------------------------------------------------------------------

 Structure from the checkpoint file:  "MOLECULE_14-vol.chk"
 -------------------
 Title Card Required
 -------------------
 Charge =  0 Multiplicity = 1

                         Standard orientation:
 ---------------------------------------------------------------------
 Center     Atomic      Atomic             Coordinates (Angstroms)
 Number     Number       Type             X           Y           Z
 ---------------------------------------------------------------------
      1          8           0        0.000000    0.000000    0.117282
      2          1           0        0.000000    0.771352   -0.469130
      3          1           0        0.000000   -0.771352   -0.469130
 ---------------------------------------------------------------------

 SCF Done:  E(RB3LYP) =  -76.4225825001     A.U. after    1 cycles

 The electronic state is 1-A1.
 Alpha  occ. eigenvalues --  -19.16895  -1.02226  -0.54355  -0.39488  -0.31925
 Alpha virt. eigenvalues --    0.02489   0.11343   0.15547   0.15557   0.20367
 Alpha virt. eigenvalues --    0.23940   0.94705   1.03180   1.11172   1.11382
 Alpha virt. eigenvalues --    1.14371   1.24351   1.71237   1.72084   1.75829

 Mulliken charges:
               1
     1  O   -0.927584
     2  H    0.463792
     3  H    0.463792
 Sum of Mulliken charges =   0.00000

 Dipole moment (field-independent basis, Debye):
    X=              0.0000    Y=              0.0000    Z=             -2.2490  Tot=              2.2490
 Quadrupole moment (field-independent basis, Debye-Ang):
   XX=             -7.9452   YY=             -4.3529   ZZ=             -6.5339
   XY=              0.0000   XZ=              0.0000   YZ=              0.0000

  Exact polarizability:   6.516   0.000   7.750   0.000   0.000   6.455
 Approx polarizability:   6.602   0.000   9.510   0.000   0.000   7.456

                      1                      2                      3
                     A1                     A1                     B2
 Frequencies --   1662.4598              3735.4484              3860.0854
 Red. masses --      1.0834                 1.0445                 1.0829
 Frc consts  --      1.7642                 8.5868                 9.5064
 IR Inten    --     97.3790                 6.0450                52.9688

 - Thermochemistry -
 -------------------
 Temperature   298.150 Kelvin.  Pressure   1.00000 Atm.
 Atom     1 has atomic number  8 and mass  15.99491

 Molecular mass:    18.01056 amu.
 Principal axes and moments of inertia in atomic units:
                           1         2         3
     Eigenvalues --     2.19823   4.28270   6.48093
           X            0.00000   0.00000   1.00000
           Y            1.00000   0.00000   0.00000
           Z            0.00000   1.00000   0.00000
 This molecule is an asymmetric top.
 Rotational symmetry number  2.
 Rotational temperatures (Kelvin)     39.40166    20.22412    13.36442
 Rotational constants (GHZ):         820.99737   421.40224   278.46929
 Zero-point vibrational energy      55375.1 (Joules/Mol)
                                   13.23497 (Kcal/Mol)
 Vibrational temperatures:   2391.91  5374.48  5553.80
          (Kelvin)

 Zero-point correction=                           0.021091 (Hartree/Particle)
 Thermal correction to Energy=                    0.023926
 Thermal correction to Enthalpy=                  0.024870
 Thermal correction to Gibbs Free Energy=         0.003430
 Sum of electronic and zero-point Energies=            -76.401491
 Sum of electronic and thermal Energies=               -76.398656
 Sum of electronic and thermal Enthalpies=             -76.397712
 Sum of electronic and thermal Free Energies=          -76.419152

                     E (Thermal)             CV                S
                      KCal/Mol        Cal/Mol-Kelvin    Cal/Mol-Kelvin
 Total                   15.014              6.004             45.124
 Electronic               0.000              0.000              0.000
 Translational            0.889              2.981             34.608
 Rotational               0.889              2.981             10.510
 Vibrational             13.237              0.042              0.006

 Optimization completed.
    -- Stationary point found.
 Normal termination of Gaussian 16 at Fri Sep 15 07:34:49 2023.
