 Gaussian 16, Revision B.01,
 Gaussian 16:  EM64L-G16RevB.01 20-Dec-2017

 ----------------------------------------------------------------------
 # opt freq b3lyp/6-31+g(d) empiricaldispersion=gd3 scf=maxcycle=1000 v
 olume
 ----------------------------------------------------------------------

 -------------------
 Title Card Required
 -------------------
 Symbolic Z-matrix:
 Charge =  0 Multiplicity = 1

 SCF Done:  E(RB3LYP) =  -233.694423646     A.U. after   11 cycles
 Optimization completed.
    -- Stationary point found.
 Normal termination of Gaussian 16 at Fri Sep 15 07:30:02 2023.

 ---------------------------------------------------------------------
 #N Geom=AllCheck Guess=TCheck SCRF=Check GenChk RB3LYP/6-31+G(d) Freq
 ---------------------------------------------------------------------

 Structure from the checkpoint file:  "MOLECULE_3-vol.chk"
 -------------------
 Title Card Required
 -------------------
 Charge =  0 Multiplicity = 1

                         Standard orientation:
 ---------------------------------------------------------------------
 Center     Atomic      Atomic             Coordinates (Angstroms)
 Number     Number       Type             X           Y           Z
 ---------------------------------------------------------------------
      1          6           0        0.688141    1.266682   -0.510368
      2          6           0       -0.005289   -0.000020    0.012116
      3          1           0        0.202761    2.159583   -0.101829
      4          1           0        1.745404    1.283129   -0.212825
      5          1           0        0.648838    1.315507   -1.605329
      6          6           0        0.695278   -1.262483   -0.511073
      7          6           0       -1.489080   -0.004040   -0.359809
      8          1           0        0.215200   -2.158364   -0.102793
      9          1           0        0.655972   -1.311072   -1.606039
     10          1           0        1.752729   -1.272935   -0.213879
     11          1           0       -1.615064   -0.003692   -1.448319
     12          1           0       -1.979889   -0.893173    0.050534
     13          1           0       -1.984918    0.881763    0.051688
     14          8           0        0.011271   -0.000350    1.455894
     15          1           0        0.934504    0.001224    1.756442
 ---------------------------------------------------------------------

 SCF Done:  E(RB3LYP) =  -233.694423646     A.U. after    1 cycles

 The electronic state is 1-A.
 Alpha  occ. eigenvalues --  -19.15211 -10.24935 -10.18185 -10.18182 -10.17611
 Alpha  occ. eigenvalues --   -1.02116  -0.79242  -0.69567  -0.69443  -0.57421
 Alpha  occ. eigenvalues --   -0.49308  -0.45517  -0.45179  -0.41682  -0.40240
 Alpha  occ. eigenvalues --   -0.38480  -0.37154  -0.35886  -0.35227  -0.32332
 Alpha  occ. eigenvalues --   -0.27502
 Alpha virt. eigenvalues --   -0.00120   0.02904   0.03288   0.03641   0.04875
 Alpha virt. eigenvalues --    0.06189   0.06369   0.07355   0.07357   0.08035
 Alpha virt. eigenvalues --    0.10887   0.11467   0.11955   0.13672   0.13935

 Mulliken charges:
               1
     1  C   -0.553016
     2  C   -0.037246
     3  H    0.218109
     4  H    0.191925
     5  H    0.208012
     6  C   -0.553404
     7  C   -0.575004
     8  H    0.218126
     9  H    0.208042
    10  H    0.191920
    11  H    0.203402
    12  H    0.214484
    13  H    0.214513
    14  O   -0.602599
    15  H    0.452737
 Sum of Mulliken charges =   0.00000

 Dipole moment (field-independent basis, Debye):
    X=              1.2819    Y=              0.0023    Z=             -1.1918  Tot=              1.7503
 Quadrupole moment (field-independent basis, Debye-Ang):
   XX=            -32.2888   YY=            -34.2531   ZZ=            -35.3854
   XY=              0.0024   XZ=              3.0781   YZ=              0.0062

  Exact polarizability:  55.086   0.001  54.298   0.458   0.001  52.581
 Approx polarizability:  70.581   0.005  68.106   0.815   0.000  71.837

                      1                      2                      3
                      A                      A                      A
 Frequencies --    213.5760               275.2514               285.0041
 Red. masses --      1.0137                 1.0603                 1.0492
 Frc consts  --      0.0272                 0.0473                 0.0502
 IR Inten    --      5.2914                10.1125                 0.0358

                      4                      5                      6
                      A                      A                      A
 Frequencies --    306.9036               349.0922               349.8789
 Red. masses --      1.0309                 2.5951                 2.3720
 Frc consts  --      0.0572                 0.1863                 0.1711
 IR Inten    --    107.9660                 5.9663                 1.5440

                      7                      8                      9
                      A                      A                      A
 Frequencies --    428.3688               471.8326               471.8678
 Red. masses --      2.2247                 2.8966                 2.5661
 Frc consts  --      0.2405                 0.3799                 0.3366
 IR Inten    --      0.4271                 7.9157                 9.3548

                     10                     11                     12
                      A                      A                      A
 Frequencies --    754.3434               920.8208               928.1001
 Red. masses --      3.9391                 1.6789                 2.5030
 Frc consts  --      1.3206                 0.8387                 1.2703
 IR Inten    --      3.3953                 0.0653                37.5202

                     13                     14                     15
                      A                      A                      A
 Frequencies --    937.6899               976.3803              1041.2719
 Red. masses --      1.8217                 1.2033                 1.3575
 Frc consts  --      0.9437                 0.6759                 0.8672
 IR Inten    --     11.1118                 0.0017                12.8364

                     16                     17                     18
                      A                      A                      A
 Frequencies --   1058.4776              1166.1566              1243.8027
 Red. masses --      1.4000                 1.3948                 2.4822
 Frc consts  --      0.9242                 1.1176                 2.2625
 IR Inten    --      1.8920                50.8375                51.4808

                     19                     20                     21
                      A                      A                      A
 Frequencies --   1268.6077              1372.5000              1421.4441
 Red. masses --      2.7025                 1.6739                 1.2616
 Frc consts  --      2.5625                 1.8578                 1.5019
 IR Inten    --     21.8787                33.5882                14.5751

                     22                     23                     24
                      A                      A                      A
 Frequencies --   1426.3385              1450.3908              1497.1319
 Red. masses --      1.3387                 1.2319                 1.0477
 Frc consts  --      1.6047                 1.5269                 1.3836
 IR Inten    --     20.5361                 3.8389                 0.0393

                     25                     26                     27
                      A                      A                      A
 Frequencies --   1506.2465              1510.0557              1521.7036
 Red. masses --      1.0460                 1.0435                 1.0579
 Frc consts  --      1.3982                 1.4019                 1.4433
 IR Inten    --      0.0150                 0.0240                 5.1459

                     28                     29                     30
                      A                      A                      A
 Frequencies --   1528.7640              1542.6259              3029.4480
 Red. masses --      1.0801                 1.0549                 1.0376
 Frc consts  --      1.4873                 1.4791                 5.6107
 IR Inten    --      6.3668                10.6050                22.4793

                     31                     32                     33
                      A                      A                      A
 Frequencies --   3035.1747              3051.9690              3091.6520
 Red. masses --      1.0373                 1.0353                 1.0994
 Frc consts  --      5.6300                 5.6819                 6.1912
 IR Inten    --     43.6150                10.6371                 3.9903

                     34                     35                     36
                      A                      A                      A
 Frequencies --   3099.1672              3117.8349              3118.1951
 Red. masses --      1.0985                 1.1029                 1.1024
 Frc consts  --      6.2165                 6.3169                 6.3155
 IR Inten    --     64.5995                 5.1245                 3.1428

                     37                     38                     39
                      A                      A                      A
 Frequencies --   3125.5906              3125.8936              3730.6537
 Red. masses --      1.1024                 1.1022                 1.0662
 Frc consts  --      6.3453                 6.3453                 8.7430
 IR Inten    --     41.3662                58.4254                 8.8232

 - Thermochemistry -
 -------------------
 Temperature   298.150 Kelvin.  Pressure   1.00000 Atm.
 Atom     1 has atomic number  6 and mass  12.00000

 Molecular mass:    74.07317 amu.
 Principal axes and moments of inertia in atomic units:
                           1         2         3
     Eigenvalues --   385.94301 388.29385 403.25324
           X            0.98358   0.00011   0.18049
           Y           -0.00024   1.00000   0.00068
           Z           -0.18049  -0.00071   0.98358
 This molecule is an asymmetric top.
 Rotational symmetry number  1.
 Rotational temperatures (Kelvin)      0.22442     0.22306     0.21479
 Rotational constants (GHZ):           4.67619     4.64787     4.47545
 Zero-point vibrational energy     357385.6 (Joules/Mol)
                                   85.41721 (Kcal/Mol)
 Warning -- explicit consideration of   9 degrees of freedom as
           vibrations may cause significant error
 Vibrational temperatures:    307.29   396.03   410.06   441.57   502.27
          (Kelvin)            503.40   616.33   678.86   678.91  1085.33
                             1324.86  1335.33  1349.13  1404.79  1498.16
                             1522.91  1677.84  1789.55  1825.24  1974.72
                             2045.14  2052.18  2086.79  2154.04  2167.15
                             2172.63  2189.39  2199.55  2219.49  4358.70
                             4366.94  4391.10  4448.20  4459.01  4485.87
                             4486.39  4497.03  4497.46  5367.58

 Zero-point correction=                           0.136121 (Hartree/Particle)
 Thermal correction to Energy=                    0.142734
 Thermal correction to Enthalpy=                  0.143679
 Thermal correction to Gibbs Free Energy=         0.107247
 Sum of electronic and zero-point Energies=           -233.558303
 Sum of electronic and thermal Energies=              -233.551689
 Sum of electronic and thermal Enthalpies=            -233.550745
 Sum of electronic and thermal Free Energies=         -233.587176

                     E (Thermal)             CV                S
                      KCal/Mol        Cal/Mol-Kelvin    Cal/Mol-Kelvin
 Total                   89.567             24.614             76.676
 Electronic               0.000              0.000              0.000
 Translational            0.889              2.981             38.823
 Rotational               0.889              2.981             25.605
 Vibrational             87.790             18.652             12.247
 Vibration     1          0.644              1.820              2.013
 Vibration     2          0.677              1.719              1.563
 Vibration     3          0.683              1.702              1.503
 Vibration     4          0.697              1.661              1.379
 Vibration     5          0.726              1.577              1.170
 Vibration     6          0.727              1.575              1.167
 Vibration     7          0.790              1.408              0.864
 Vibration     8          0.829              1.313              0.732
 Vibration     9          0.829              1.312              0.732

 Optimization completed.
    -- Stationary point found.
 Normal termination of Gaussian 16 at Fri Sep 15 07:30:29 2023.
