 Gaussian 16, Revision B.01,
 Gaussian 16:  EM64L-G16RevB.01 20-Dec-2017

 ----------------------------------------------------------------------
 # opt freq b3lyp/6-31+g(d) empiricaldispersion=gd3 scf=maxcycle=1000 v
 olume
 ----------------------------------------------------------------------

 -------------------
 Title Card Required
 -------------------
 Symbolic Z-matrix:
 Charge =  0 Multiplicity = 1

 SCF Done:  E(RB3LYP) =  -325.968732083     A.U. after   12 cycles
 Optimization completed.
    -- Stationary point found.
 Normal termination of Gaussian 16 at Fri Sep 15 07:33:25 2023.

 ---------------------------------------------------------------------
 #N Geom=AllCheck Guess=TCheck SCRF=Check GenChk RB3LYP/6-31+G(d) Freq
 ---------------------------------------------------------------------

 Structure from the checkpoint file:  "MOLECULE_10-vol.chk"
 -------------------
 Title Card Required
 -------------------
 Charge =  0 Multiplicity = 1

                         Standard orientation:
 ---------------------------------------------------------------------
 Center     Atomic      Atomic             Coordinates (Angstroms)
 Number     Number       Type             X           Y           Z
 ---------------------------------------------------------------------
      1          6           0       -0.538945   -1.380908    0.132256
      2          6           0       -1.787837   -0.532093   -0.190092
      3          6           0       -1.342606    0.903888    0.134791
      4          6           0        0.179146    0.871386   -0.006803
      5          1           0       -0.549086   -1.752026    1.170618
      6          1           0       -0.429399   -2.248310   -0.529877
      7          1           0       -2.023468   -0.619727   -1.256674
      8          1           0       -2.665202   -0.857924    0.375998
      9          1           0       -1.771062    1.670694   -0.515790
     10          1           0       -1.573431    1.185261    1.170947
     11          7           0        0.560756   -0.445146   -0.063836
     12          6           0        1.943085   -0.868949   -0.011456
     13          1           0        2.576263    0.006547   -0.171837
     14          1           0        2.183749   -1.310797    0.966521
     15          1           0        2.144743   -1.614075   -0.790720
     16          8           0        0.933069    1.837054   -0.040564
 ---------------------------------------------------------------------

 SCF Done:  E(RB3LYP) =  -325.968732083     A.U. after    1 cycles

 The electronic state is 1-A.
 Alpha  occ. eigenvalues --  -19.11816 -14.37104 -10.28582 -10.23780 -10.22245
 Alpha  occ. eigenvalues --  -10.20742 -10.20095  -1.03498  -0.95149  -0.80827
 Alpha  occ. eigenvalues --   -0.72408  -0.70369  -0.61918  -0.54454  -0.51332
 Alpha  occ. eigenvalues --   -0.49677  -0.45632  -0.44654  -0.42601  -0.41294
 Alpha  occ. eigenvalues --   -0.39449  -0.38857  -0.38404  -0.36539  -0.34055
 Alpha  occ. eigenvalues --   -0.25451  -0.24574
 Alpha virt. eigenvalues --    0.00000   0.01292   0.01896   0.02336   0.02490
 Alpha virt. eigenvalues --    0.04134   0.05283   0.06251   0.06422   0.07440
 Alpha virt. eigenvalues --    0.08015   0.09148   0.10256   0.10542   0.10895

 Mulliken charges:
               1
     1  C   -0.268942
     2  C   -0.495302
     3  C   -0.450018
     4  C    0.461805
     5  H    0.198251
     6  H    0.198130
     7  H    0.216307
     8  H    0.207615
     9  H    0.230747
    10  H    0.228176
    11  N   -0.124868
    12  C   -0.501252
    13  H    0.248064
    14  H    0.202558
    15  H    0.202768
    16  O   -0.554038
 Sum of Mulliken charges =   0.00000

 Dipole moment (field-independent basis, Debye):
    X=             -1.8911    Y=             -3.7838    Z=              0.2694  Tot=              4.2386
 Quadrupole moment (field-independent basis, Debye-Ang):
   XX=            -41.1629   YY=            -48.7925   ZZ=            -42.4233
   XY=             -5.0595   XZ=             -0.0321   YZ=              0.2009

  Exact polarizability:  72.033  -0.679  76.220  -0.414  -0.611  52.611
 Approx polarizability:  89.325   3.038 109.041  -1.294  -0.876  76.134

                      1                      2                      3
                      A                      A                      A
 Frequencies --    132.8300               155.4056               158.5827
 Red. masses --      1.4116                 2.4038                 1.7357
 Frc consts  --      0.0147                 0.0342                 0.0257
 IR Inten    --      0.6400                 4.9574                 0.3791

                      4                      5                      6
                      A                      A                      A
 Frequencies --    213.6668               317.0458               470.4794
 Red. masses --      1.9080                 3.1002                 4.5596
 Frc consts  --      0.0513                 0.1836                 0.5946
 IR Inten    --      2.4772                 6.3823                 7.4882

                      7                      8                      9
                      A                      A                      A
 Frequencies --    559.4102               617.3721               659.4152
 Red. masses --      2.3586                 3.5748                 4.8621
 Frc consts  --      0.4349                 0.8028                 1.2456
 IR Inten    --      5.1143                 1.6157                 9.3943

                     10                     11                     12
                      A                      A                      A
 Frequencies --    752.0272               868.3491               916.0594
 Red. masses --      2.5871                 1.9737                 1.4865
 Frc consts  --      0.8620                 0.8768                 0.7350
 IR Inten    --      0.6195                 9.9204                 1.9243

                     13                     14                     15
                      A                      A                      A
 Frequencies --    936.4969              1004.3078              1038.0568
 Red. masses --      2.3220                 2.1473                 2.4597
 Frc consts  --      1.1998                 1.2761                 1.5616
 IR Inten    --      2.4268                11.3653                 3.0764

                     16                     17                     18
                      A                      A                      A
 Frequencies --   1097.1434              1131.4227              1158.9987
 Red. masses --      1.6367                 2.0812                 1.2653
 Frc consts  --      1.1608                 1.5697                 1.0014
 IR Inten    --      2.1143                40.2651                 2.2407

                     19                     20                     21
                      A                      A                      A
 Frequencies --   1200.5962              1228.9247              1254.3651
 Red. masses --      1.3526                 1.4458                 1.2604
 Frc consts  --      1.1487                 1.2865                 1.1685
 IR Inten    --      4.6746                 3.6895                13.2013

                     22                     23                     24
                      A                      A                      A
 Frequencies --   1293.5759              1322.0364              1332.4409
 Red. masses --      2.4912                 1.5325                 2.0104
 Frc consts  --      2.4561                 1.5781                 2.1029
 IR Inten    --     36.0751                16.2707                64.0226

                     25                     26                     27
                      A                      A                      A
 Frequencies --   1359.5463              1449.6798              1469.8508
 Red. masses --      1.4209                 1.8479                 1.3550
 Frc consts  --      1.5474                 2.2880                 1.7248
 IR Inten    --      6.1408                82.0797                33.7092

                     28                     29                     30
                      A                      A                      A
 Frequencies --   1493.2033              1515.1263              1520.9167
 Red. masses --      1.0872                 1.0445                 1.0844
 Frc consts  --      1.4283                 1.4128                 1.4779
 IR Inten    --      2.1166                11.5960                 9.9565

                     31                     32                     33
                      A                      A                      A
 Frequencies --   1532.5833              1556.7567              1771.9259
 Red. masses --      1.1260                 1.1342                10.8101
 Frc consts  --      1.5582                 1.6195                19.9972
 IR Inten    --     12.9054                 8.2528               470.8951

                     34                     35                     36
                      A                      A                      A
 Frequencies --   2988.4940              3019.1712              3053.8686
 Red. masses --      1.0715                 1.0432                 1.0704
 Frc consts  --      5.6385                 5.6028                 5.8818
 IR Inten    --     70.2504                72.9745                20.0182

                     37                     38                     39
                      A                      A                      A
 Frequencies --   3060.1995              3073.4834              3076.2309
 Red. masses --      1.0800                 1.0738                 1.0976
 Frc consts  --      5.9588                 5.9762                 6.1197
 IR Inten    --     14.2289                63.9137                28.8432

                     40                     41                     42
                      A                      A                      A
 Frequencies --   3116.0937              3129.0408              3154.6530
 Red. masses --      1.1005                 1.0988                 1.0986
 Frc consts  --      6.2960                 6.3388                 6.4417
 IR Inten    --     24.1203                19.5980                 1.9973

 - Thermochemistry -
 -------------------
 Temperature   298.150 Kelvin.  Pressure   1.00000 Atm.
 Atom     1 has atomic number  6 and mass  12.00000

 Molecular mass:    99.06841 amu.
 Principal axes and moments of inertia in atomic units:
                           1         2         3
     Eigenvalues --   483.16057 605.341681034.26138
           X            0.98667  -0.16274   0.00100
           Y            0.16274   0.98667   0.00083
           Z           -0.00113  -0.00066   1.00000
 This molecule is an asymmetric top.
 Rotational symmetry number  1.
 Warning -- assumption of classical behavior for rotation
           may cause significant error
 Rotational temperatures (Kelvin)      0.17927     0.14308     0.08374
 Rotational constants (GHZ):           3.73528     2.98136     1.74496
 Zero-point vibrational energy     365817.0 (Joules/Mol)
                                   87.43237 (Kcal/Mol)
 Warning -- explicit consideration of   8 degrees of freedom as
           vibrations may cause significant error
 Vibrational temperatures:    191.11   223.59   228.17   307.42   456.16
          (Kelvin)            676.91   804.87   888.26   948.75  1082.00
                             1249.36  1318.01  1347.41  1444.97  1493.53
                             1578.54  1627.86  1667.54  1727.39  1768.15
                             1804.75  1861.17  1902.12  1917.09  1956.08
                             2085.77  2114.79  2148.39  2179.93  2188.26
                             2205.05  2239.83  2549.41  4299.78  4343.91
                             4393.84  4402.94  4422.06  4426.01  4483.36
                             4501.99  4538.84

 Zero-point correction=                           0.139332 (Hartree/Particle)
 Thermal correction to Energy=                    0.146259
 Thermal correction to Enthalpy=                  0.147204
 Thermal correction to Gibbs Free Energy=         0.108413
 Sum of electronic and zero-point Energies=           -325.829400
 Sum of electronic and thermal Energies=              -325.822473
 Sum of electronic and thermal Enthalpies=            -325.821529
 Sum of electronic and thermal Free Energies=         -325.860320

                     E (Thermal)             CV                S
                      KCal/Mol        Cal/Mol-Kelvin    Cal/Mol-Kelvin
 Total                   91.779             24.813             81.643
 Electronic               0.000              0.000              0.000
 Translational            0.889              2.981             39.690
 Rotational               0.889              2.981             27.206
 Vibrational             90.002             18.852             14.747
 Vibration     1          0.613              1.921              2.905
 Vibration     2          0.620              1.897              2.605
 Vibration     3          0.621              1.893              2.567
 Vibration     4          0.644              1.820              2.012
 Vibration     5          0.704              1.641              1.325
 Vibration     6          0.828              1.316              0.736
 Vibration     7          0.915              1.119              0.525
 Vibration     8          0.977              0.995              0.421

                           ! Non-Optimized Parameters !
 Normal termination of Gaussian 16 at Fri Sep 15 07:34:07 2023.
