 Gaussian 16, Revision B.01,
 Gaussian 16:  EM64L-G16RevB.01 20-Dec-2017

 ----------------------------------------------------------------------
 # opt freq b3lyp/6-31+g(d) empiricaldispersion=gd3 scf=maxcycle=1000 v
 olume
 ----------------------------------------------------------------------

 -------------------
 Title Card Required
 -------------------
 Symbolic Z-matrix:
 Charge =  0 Multiplicity = 1

 SCF Done:  E(RB3LYP) =  -553.205130371     A.U. after   12 cycles
 SCF Done:  E(RB3LYP) =  -553.205130402     A.U. after    7 cycles
 Optimization completed.
    -- Stationary point found.
 Normal termination of Gaussian 16 at Fri Sep 15 07:34:33 2023.

 ---------------------------------------------------------------------
 #N Geom=AllCheck Guess=TCheck SCRF=Check GenChk RB3LYP/6-31+G(d) Freq
 ---------------------------------------------------------------------

 Structure from the checkpoint file:  "MOLECULE_13-vol.chk"
 -------------------
 Title Card Required
 -------------------
 Charge =  0 Multiplicity = 1

                         Standard orientation:
 ---------------------------------------------------------------------
 Center     Atomic      Atomic             Coordinates (Angstroms)
 Number     Number       Type             X           Y           Z
 ---------------------------------------------------------------------
      1         16           0        0.000003    0.238436   -0.447555
      2          8           0        0.000082    1.504598    0.391391
      3          6           0       -1.366476   -0.817578    0.184267
      4          1           0       -2.302859   -0.309336   -0.059755
      5          1           0       -1.335417   -1.798550   -0.301601
      6          1           0       -1.270124   -0.911960    1.270639
      7          6           0        1.366407   -0.817701    0.184259
      8          1           0        1.335250   -1.798703   -0.301536
      9          1           0        2.302843   -0.309567   -0.059784
     10          1           0        1.270007   -0.911973    1.270634
 ---------------------------------------------------------------------

 SCF Done:  E(RB3LYP) =  -553.205130402     A.U. after    1 cycles

 The electronic state is 1-A.
 Alpha  occ. eigenvalues --  -88.99966 -19.11846 -10.22461 -10.22461  -8.04582
 Alpha  occ. eigenvalues --   -6.00995  -6.00902  -6.00319  -1.00994  -0.79876
 Alpha  occ. eigenvalues --   -0.72970  -0.61529  -0.47534  -0.46651  -0.46471
 Alpha  occ. eigenvalues --   -0.43479  -0.40936  -0.40178  -0.36237  -0.27427
 Alpha  occ. eigenvalues --   -0.23802
 Alpha virt. eigenvalues --   -0.00154   0.00071   0.01571   0.02501   0.04369
 Alpha virt. eigenvalues --    0.04615   0.05245   0.06253   0.07420   0.07834
 Alpha virt. eigenvalues --    0.09780   0.11348   0.11808   0.13746   0.14068

 Mulliken charges:
               1
     1  S    0.806541
     2  O   -0.697229
     3  C   -0.774184
     4  H    0.249456
     5  H    0.224148
     6  H    0.245919
     7  C   -0.774171
     8  H    0.224147
     9  H    0.249456
    10  H    0.245918
 Sum of Mulliken charges =   0.00000

 Dipole moment (field-independent basis, Debye):
    X=             -0.0003    Y=             -4.3467    Z=             -0.7268  Tot=              4.4070
 Quadrupole moment (field-independent basis, Debye-Ang):
   XX=            -29.0846   YY=            -37.5727   ZZ=            -33.6688
   XY=             -0.0004   XZ=             -0.0002   YZ=             -1.8510

  Exact polarizability:  54.069   0.000  54.864   0.000   1.042  41.806
 Approx polarizability:  70.148   0.000  84.293   0.000   4.877  58.654

                      1                      2                      3
                      A                      A                      A
 Frequencies --    175.7260               228.0144               286.2050
 Red. masses --      1.0287                 1.0615                 2.6541
 Frc consts  --      0.0187                 0.0325                 0.1281
 IR Inten    --      0.0003                 0.4856                 0.6116

                      4                      5                      6
                      A                      A                      A
 Frequencies --    303.1601               365.7130               630.5967
 Red. masses --      4.1968                 3.1988                 4.7713
 Frc consts  --      0.2273                 0.2521                 1.1179
 IR Inten    --      8.6607                 8.4814                 8.5004

                      7                      8                      9
                      A                      A                      A
 Frequencies --    660.7891               907.2602               942.9459
 Red. masses --      4.4034                 1.1847                 1.3517
 Frc consts  --      1.1328                 0.5745                 0.7081
 IR Inten    --     18.3567                 1.5865                 5.0062

                     10                     11                     12
                      A                      A                      A
 Frequencies --    966.0060              1037.2432              1065.4543
 Red. masses --      1.6859                 1.3535                 5.4382
 Frc consts  --      0.9269                 0.8580                 3.6372
 IR Inten    --     22.0444                18.1706               136.2960

                     13                     14                     15
                      A                      A                      A
 Frequencies --   1342.5630              1365.5604              1462.1195
 Red. masses --      1.1880                 1.1837                 1.0550
 Frc consts  --      1.2617                 1.3006                 1.3288
 IR Inten    --      1.0969                 7.4250                11.7858

                     16                     17                     18
                      A                      A                      A
 Frequencies --   1475.0849              1479.7523              1498.4080
 Red. masses --      1.0480                 1.0543                 1.0514
 Frc consts  --      1.3435                 1.3601                 1.3908
 IR Inten    --      5.4299                 0.0989                25.1687

                     19                     20                     21
                      A                      A                      A
 Frequencies --   3051.7696              3054.3911              3148.3571
 Red. masses --      1.0297                 1.0294                 1.1075
 Frc consts  --      5.6502                 5.6581                 6.4677
 IR Inten    --      6.9540                 9.9327                 0.0475

                     22                     23                     24
                      A                      A                      A
 Frequencies --   3152.5534              3163.0417              3163.4317
 Red. masses --      1.1070                 1.1051                 1.1056
 Frc consts  --      6.4822                 6.5141                 6.5189
 IR Inten    --     12.1812                 1.7463                 3.6715

 - Thermochemistry -
 -------------------
 Temperature   298.150 Kelvin.  Pressure   1.00000 Atm.
 Atom     1 has atomic number 16 and mass  31.97207

 Molecular mass:    78.01394 amu.
 Principal axes and moments of inertia in atomic units:
                           1         2         3
     Eigenvalues --   268.10421 269.20005 444.19204
           X            1.00000  -0.00103   0.00000
           Y            0.00103   0.99963  -0.02703
           Z            0.00003   0.02703   0.99963
 This molecule is an asymmetric top.
 Rotational symmetry number  1.
 Rotational temperatures (Kelvin)      0.32306     0.32175     0.19499
 Rotational constants (GHZ):           6.73149     6.70409     4.06298
 Zero-point vibrational energy     208904.7 (Joules/Mol)
                                   49.92943 (Kcal/Mol)
 Warning -- explicit consideration of   5 degrees of freedom as
           vibrations may cause significant error
 Vibrational temperatures:    252.83   328.06   411.79   436.18   526.18
          (Kelvin)            907.29   950.73  1305.35  1356.69  1389.87
                             1492.36  1532.95  1931.65  1964.74  2103.66
                             2122.32  2129.03  2155.87  4390.82  4394.59
                             4529.78  4535.82  4550.91  4551.47

 Zero-point correction=                           0.079568 (Hartree/Particle)
 Thermal correction to Energy=                    0.085230
 Thermal correction to Enthalpy=                  0.086174
 Thermal correction to Gibbs Free Energy=         0.051214
 Sum of electronic and zero-point Energies=           -553.125563
 Sum of electronic and thermal Energies=              -553.119901
 Sum of electronic and thermal Enthalpies=            -553.118956
 Sum of electronic and thermal Free Energies=         -553.153916

                     E (Thermal)             CV                S
                      KCal/Mol        Cal/Mol-Kelvin    Cal/Mol-Kelvin
 Total                   53.483             18.986             73.579
 Electronic               0.000              0.000              0.000
 Translational            0.889              2.981             38.978
 Rotational               0.889              2.981             24.975
 Vibrational             51.705             13.024              9.625
 Vibration     1          0.628              1.872              2.373
 Vibration     2          0.651              1.798              1.895
 Vibration     3          0.684              1.699              1.496
 Vibration     4          0.695              1.668              1.399
 Vibration     5          0.739              1.543              1.098

 Optimization completed.
    -- Stationary point found.
 Normal termination of Gaussian 16 at Fri Sep 15 07:34:45 2023.
