 Gaussian 16, Revision B.01,
 Gaussian 16:  EM64L-G16RevB.01 20-Dec-2017

 ----------------------------------------------------------------------
 # opt freq b3lyp/6-31+g(d) empiricaldispersion=gd3 scf=maxcycle=1000 v
 olume
 ----------------------------------------------------------------------

 -------------------
 Title Card Required
 -------------------
 Symbolic Z-matrix:
 Charge =  0 Multiplicity = 1

 SCF Done:  E(RB3LYP) =  -248.530464720     A.U. after   12 cycles
 Optimization completed.
    -- Stationary point found.
 Normal termination of Gaussian 16 at Fri Sep 15 07:32:59 2023.

 ---------------------------------------------------------------------
 #N Geom=AllCheck Guess=TCheck SCRF=Check GenChk RB3LYP/6-31+G(d) Freq
 ---------------------------------------------------------------------

 Structure from the checkpoint file:  "MOLECULE_9-vol.chk"
 -------------------
 Title Card Required
 -------------------
 Charge =  0 Multiplicity = 1

                         Standard orientation:
 ---------------------------------------------------------------------
 Center     Atomic      Atomic             Coordinates (Angstroms)
 Number     Number       Type             X           Y           Z
 ---------------------------------------------------------------------
      1          6           0       -0.869521   -0.645181    0.000010
      2          8           0       -1.959987   -0.088340   -0.000011
      3          1           0       -0.775345   -1.747999    0.000106
      4          7           0        0.343694   -0.022244   -0.000030
      5          6           0        0.433985    1.430038    0.000009
      6          1           0        0.971472    1.778752    0.891665
      7          1           0        0.971647    1.778767   -0.891525
      8          1           0       -0.575572    1.843721   -0.000059
      9          6           0        1.590020   -0.767209   -0.000001
     10          1           0        2.186342   -0.527662    0.890695
     11          1           0        1.382232   -1.841374   -0.000008
     12          1           0        2.186357   -0.527661   -0.890682
 ---------------------------------------------------------------------

 SCF Done:  E(RB3LYP) =  -248.530464720     A.U. after    1 cycles

 The electronic state is 1-A.
 Alpha  occ. eigenvalues --  -19.12686 -14.38329 -10.29023 -10.24002 -10.22610
 Alpha  occ. eigenvalues --   -1.03955  -0.94965  -0.74257  -0.71328  -0.57944
 Alpha  occ. eigenvalues --   -0.52490  -0.48853  -0.47575  -0.42232  -0.41998
 Alpha  occ. eigenvalues --   -0.41206  -0.39688  -0.38348  -0.26402  -0.25448
 Alpha virt. eigenvalues --   -0.00315   0.00428   0.02067   0.02925   0.04386
 Alpha virt. eigenvalues --    0.04681   0.05799   0.07150   0.07620   0.08337
 Alpha virt. eigenvalues --    0.10419   0.11844   0.12807   0.14046   0.16921

 Mulliken charges:
               1
     1  C    0.222202
     2  O   -0.502537
     3  H    0.140635
     4  N   -0.112531
     5  C   -0.521817
     6  H    0.201228
     7  H    0.201225
     8  H    0.251958
     9  C   -0.500450
    10  H    0.209397
    11  H    0.201289
    12  H    0.209400
 Sum of Mulliken charges =   0.00000

 Dipole moment (field-independent basis, Debye):
    X=              4.2792    Y=             -0.4421    Z=              0.0001  Tot=              4.3019
 Quadrupole moment (field-independent basis, Debye-Ang):
   XX=            -38.1313   YY=            -27.9062   ZZ=            -31.5823
   XY=              0.0215   XZ=             -0.0001   YZ=             -0.0001

  Exact polarizability:  60.535   0.987  48.627   0.000   0.000  35.554
 Approx polarizability:  86.273   0.022  61.610   0.000   0.000  48.355

                      1                      2                      3
                      A                      A                      A
 Frequencies --     96.3871               166.4914               243.9087
 Red. masses --      1.4813                 1.1611                 1.5016
 Frc consts  --      0.0081                 0.0190                 0.0526
 IR Inten    --      0.1153                 0.0764                 1.0325

                      4                      5                      6
                      A                      A                      A
 Frequencies --    327.3998               331.0340               404.0758
 Red. masses --      4.0116                 2.3580                 2.4098
 Frc consts  --      0.2534                 0.1522                 0.2318
 IR Inten    --     11.3281                18.8536                 1.6099

                      7                      8                      9
                      A                      A                      A
 Frequencies --    658.5353               874.3543              1010.8641
 Red. masses --      5.1562                 3.9794                 1.6069
 Frc consts  --      1.3175                 1.7924                 0.9674
 IR Inten    --      7.9001                 1.5031                 0.0467

                     10                     11                     12
                      A                      A                      A
 Frequencies --   1092.3091              1105.4830              1137.3265
 Red. masses --      1.3725                 1.7484                 1.2215
 Frc consts  --      0.9648                 1.2589                 0.9309
 IR Inten    --      5.5116               116.7936                 0.0503

                     13                     14                     15
                      A                      A                      A
 Frequencies --   1184.8349              1280.4715              1425.4788
 Red. masses --      1.3637                 4.2676                 1.6259
 Frc consts  --      1.1280                 4.1226                 1.9465
 IR Inten    --      3.1632                35.5631                79.5958

                     16                     17                     18
                      A                      A                      A
 Frequencies --   1443.2569              1459.1001              1487.6967
 Red. masses --      1.8083                 1.1552                 1.1930
 Frc consts  --      2.2192                 1.4491                 1.5556
 IR Inten    --     23.5648                 5.6707                 9.8459

                     19                     20                     21
                      A                      A                      A
 Frequencies --   1500.1764              1521.7672              1522.3684
 Red. masses --      1.0405                 1.0420                 1.0663
 Frc consts  --      1.3797                 1.4217                 1.4560
 IR Inten    --      3.2829                20.3845                13.7442

                     22                     23                     24
                      A                      A                      A
 Frequencies --   1554.9711              1762.3488              2973.1843
 Red. masses --      1.1825                 7.8564                 1.0845
 Frc consts  --      1.6846                14.3766                 5.6483
 IR Inten    --     20.9627               520.2188                89.8279

                     25                     26                     27
                      A                      A                      A
 Frequencies --   3023.0495              3031.5251              3070.9871
 Red. masses --      1.0356                 1.0377                 1.1050
 Frc consts  --      5.5759                 5.6190                 6.1398
 IR Inten    --     53.6235                66.3697                53.6576

                     28                     29                     30
                      A                      A                      A
 Frequencies --   3078.9980              3128.6240              3168.8872
 Red. masses --      1.1051                 1.0996                 1.0980
 Frc consts  --      6.1726                 6.3417                 6.4961
 IR Inten    --     17.6552                18.5356                 1.1571

 - Thermochemistry -
 -------------------
 Temperature   298.150 Kelvin.  Pressure   1.00000 Atm.
 Atom     1 has atomic number  6 and mass  12.00000

 Molecular mass:    73.05276 amu.
 Principal axes and moments of inertia in atomic units:
                           1         2         3
     Eigenvalues --   202.72551 435.13373 614.99448
           X            0.99988  -0.01580   0.00000
           Y            0.01580   0.99988   0.00000
           Z            0.00000   0.00000   1.00000
 This molecule is an asymmetric top.
 Rotational symmetry number  1.
 Rotational temperatures (Kelvin)      0.42725     0.19905     0.14084
 Rotational constants (GHZ):           8.90239     4.14756     2.93456
 Zero-point vibrational energy     269553.9 (Joules/Mol)
                                   64.42493 (Kcal/Mol)
 Warning -- explicit consideration of   6 degrees of freedom as
           vibrations may cause significant error
 Vibrational temperatures:    138.68   239.54   350.93   471.06   476.28
          (Kelvin)            581.37   947.49  1258.00  1454.41  1571.59
                             1590.54  1636.36  1704.71  1842.31  2050.95
                             2076.52  2099.32  2140.46  2158.42  2189.48
                             2190.35  2237.26  2535.63  4277.75  4349.49
                             4361.69  4418.47  4429.99  4501.39  4559.32

 Zero-point correction=                           0.102668 (Hartree/Particle)
 Thermal correction to Energy=                    0.108797
 Thermal correction to Enthalpy=                  0.109742
 Thermal correction to Gibbs Free Energy=         0.073398
 Sum of electronic and zero-point Energies=           -248.427797
 Sum of electronic and thermal Energies=              -248.421667
 Sum of electronic and thermal Enthalpies=            -248.420723
 Sum of electronic and thermal Free Energies=         -248.457066

                     E (Thermal)             CV                S
                      KCal/Mol        Cal/Mol-Kelvin    Cal/Mol-Kelvin
 Total                   68.271             19.920             76.491
 Electronic               0.000              0.000              0.000
 Translational            0.889              2.981             38.782
 Rotational               0.889              2.981             25.498
 Vibrational             66.494             13.959             12.210
 Vibration     1          0.603              1.952              3.526
 Vibration     2          0.624              1.884              2.475
 Vibration     3          0.659              1.773              1.774
 Vibration     4          0.711              1.621              1.273
 Vibration     5          0.713              1.614              1.255
 Vibration     6          0.769              1.461              0.948

 Optimization completed.
    -- Stationary point found.
 Normal termination of Gaussian 16 at Fri Sep 15 07:33:16 2023.
