 Gaussian 16, Revision B.01,
 Gaussian 16:  EM64L-G16RevB.01 20-Dec-2017

 ----------------------------------------------------------------------
 # opt freq b3lyp/6-31+g(d) empiricaldispersion=gd3 scf=maxcycle=1000 v
 olume
 ----------------------------------------------------------------------

 -------------------
 Title Card Required
 -------------------
 Symbolic Z-matrix:
 Charge =  0 Multiplicity = 1

 SCF Done:  E(RB3LYP) =  -155.036901738     A.U. after    9 cycles
 Optimization completed.
    -- Stationary point found.
 Normal termination of Gaussian 16 at Fri Sep 15 07:34:18 2023.

 ---------------------------------------------------------------------
 #N Geom=AllCheck Guess=TCheck SCRF=Check GenChk RB3LYP/6-31+G(d) Freq
 ---------------------------------------------------------------------

 Structure from the checkpoint file:  "MOLECULE_12-vol.chk"
 -------------------
 Title Card Required
 -------------------
 Charge =  0 Multiplicity = 1

                         Standard orientation:
 ---------------------------------------------------------------------
 Center     Atomic      Atomic             Coordinates (Angstroms)
 Number     Number       Type             X           Y           Z
 ---------------------------------------------------------------------
      1          6           0        1.177999   -0.195807    0.000001
      2          1           0        2.024151    0.496653   -0.000222
      3          1           0        1.235693   -0.837157   -0.895624
      4          1           0        1.235895   -0.836843    0.895837
      5          8           0        0.000000    0.588048    0.000001
      6          6           0       -1.177999   -0.195807   -0.000001
      7          1           0       -1.235755   -0.837066    0.895685
      8          1           0       -2.024151    0.496653    0.000093
      9          1           0       -1.235832   -0.836933   -0.895776
 ---------------------------------------------------------------------

 SCF Done:  E(RB3LYP) =  -155.036901738     A.U. after    1 cycles

 The electronic state is 1-A.
 Alpha  occ. eigenvalues --  -19.15996 -10.23214 -10.23213  -1.03744  -0.72614
 Alpha  occ. eigenvalues --   -0.64263  -0.48153  -0.47504  -0.47405  -0.40156
 Alpha  occ. eigenvalues --   -0.38333  -0.32504  -0.26381
 Alpha virt. eigenvalues --    0.01071   0.02962   0.03561   0.04639   0.05500
 Alpha virt. eigenvalues --    0.07217   0.08317   0.12041   0.15922   0.18648
 Alpha virt. eigenvalues --    0.18701   0.19332   0.21478   0.23799   0.25247

 Mulliken charges:
               1
     1  C   -0.380002
     2  H    0.197865
     3  H    0.176333
     4  H    0.176344
     5  O   -0.341079
     6  C   -0.380002
     7  H    0.176336
     8  H    0.197865
     9  H    0.176341
 Sum of Mulliken charges =   0.00000

 Dipole moment (field-independent basis, Debye):
    X=              0.0000    Y=             -1.4600    Z=              0.0000  Tot=              1.4600
 Quadrupole moment (field-independent basis, Debye-Ang):
   XX=            -17.4071   YY=            -21.7595   ZZ=            -20.5521
   XY=              0.0000   XZ=             -0.0001   YZ=              0.0000

  Exact polarizability:  33.904   0.000  28.141   0.000   0.000  27.856
 Approx polarizability:  38.397   0.000  37.115   0.000   0.000  35.523

                      1                      2                      3
                      A                      A                      A
 Frequencies --    216.7674               264.2765               423.8136
 Red. masses --      1.0310                 1.3138                 2.3246
 Frc consts  --      0.0285                 0.0541                 0.2460
 IR Inten    --      0.0000                 7.7054                 2.6775

                      4                      5                      6
                      A                      A                      A
 Frequencies --    939.6427              1123.3831              1170.1936
 Red. masses --      4.2259                 1.8839                 1.2145
 Frc consts  --      2.1983                 1.4007                 0.9799
 IR Inten    --     41.2911                50.9110                 0.0000

                      7                      8                      9
                      A                      A                      A
 Frequencies --   1201.5383              1204.0900              1272.2039
 Red. masses --      1.3486                 2.6503                 1.5550
 Frc consts  --      1.1471                 2.2640                 1.4828
 IR Inten    --      7.8849                98.4089                 5.5286

                     10                     11                     12
                      A                      A                      A
 Frequencies --   1476.3516              1501.6379              1505.6806
 Red. masses --      1.1220                 1.0451                 1.1420
 Frc consts  --      1.4408                 1.3884                 1.5254
 IR Inten    --      5.1075                 0.0000                 0.5459

                     13                     14                     15
                      A                      A                      A
 Frequencies --   1514.5369              1515.2290              1532.1632
 Red. masses --      1.0480                 1.0518                 1.0713
 Frc consts  --      1.4163                 1.4228                 1.4817
 IR Inten    --     14.1285                14.4683                 1.8887

                     16                     17                     18
                      A                      A                      A
 Frequencies --   2971.0027              2983.6644              3018.3246
 Red. masses --      1.0359                 1.0376                 1.1035
 Frc consts  --      5.3873                 5.4424                 5.9231
 IR Inten    --     65.1392                76.1018               149.1986

                     19                     20                     21
                      A                      A                      A
 Frequencies --   3022.9277              3131.4565              3132.5648
 Red. masses --      1.1062                 1.0957                 1.0963
 Frc consts  --      5.9560                 6.3302                 6.3387
 IR Inten    --      0.0000                35.0093                22.6746

 - Thermochemistry -
 -------------------
 Temperature   298.150 Kelvin.  Pressure   1.00000 Atm.
 Atom     1 has atomic number  6 and mass  12.00000

 Molecular mass:    46.04186 amu.
 Principal axes and moments of inertia in atomic units:
                           1         2         3
     Eigenvalues --    46.02677 181.95949 204.88543
           X            1.00000   0.00000   0.00000
           Y            0.00000   1.00000   0.00000
           Z            0.00000   0.00000   1.00000
 This molecule is an asymmetric top.
 Rotational symmetry number  1.
 Rotational temperatures (Kelvin)      1.88182     0.47601     0.42274
 Rotational constants (GHZ):          39.21068     9.91837     8.80854
 Zero-point vibrational energy     210072.9 (Joules/Mol)
                                   50.20863 (Kcal/Mol)
 Warning -- explicit consideration of   3 degrees of freedom as
           vibrations may cause significant error
 Vibrational temperatures:    311.88   380.24   609.77  1351.94  1616.30
          (Kelvin)           1683.65  1728.75  1732.42  1830.42  2124.14
                             2160.52  2166.34  2179.08  2180.08  2204.44
                             4274.61  4292.83  4342.70  4349.32  4505.47
                             4507.06

 Zero-point correction=                           0.080013 (Hartree/Particle)
 Thermal correction to Energy=                    0.084296
 Thermal correction to Enthalpy=                  0.085240
 Thermal correction to Gibbs Free Energy=         0.054654
 Sum of electronic and zero-point Energies=           -154.956889
 Sum of electronic and thermal Energies=              -154.952606
 Sum of electronic and thermal Enthalpies=            -154.951661
 Sum of electronic and thermal Free Energies=         -154.982248

                     E (Thermal)             CV                S
                      KCal/Mol        Cal/Mol-Kelvin    Cal/Mol-Kelvin
 Total                   52.897             12.876             64.375
 Electronic               0.000              0.000              0.000
 Translational            0.889              2.981             37.406
 Rotational               0.889              2.981             22.067
 Vibrational             51.119              6.914              4.902
 Vibration     1          0.646              1.815              1.986
 Vibration     2          0.671              1.738              1.633
 Vibration     3          0.786              1.418              0.879

 Optimization completed.
    -- Stationary point found.
 Normal termination of Gaussian 16 at Fri Sep 15 07:34:27 2023.
