 Gaussian 16, Revision B.01,
 Gaussian 16:  EM64L-G16RevB.01 20-Dec-2017

 ----------------------------------------------------------------------
 # opt freq b3lyp/6-31+g(d) empiricaldispersion=gd3 scf=maxcycle=1000 v
 olume
 ----------------------------------------------------------------------

 -------------------
 Title Card Required
 -------------------
 Symbolic Z-matrix:
 Charge =  0 Multiplicity = 1

 SCF Done:  E(RB3LYP) =  -232.461011216     A.U. after   10 cycles
 Optimization completed.
    -- Stationary point found.
 Normal termination of Gaussian 16 at Fri Sep 15 07:34:54 2023.

 ---------------------------------------------------------------------
 #N Geom=AllCheck Guess=TCheck SCRF=Check GenChk RB3LYP/6-31+G(d) Freq
 ---------------------------------------------------------------------

 Structure from the checkpoint file:  "MOLECULE_15-vol.chk"
 -------------------
 Title Card Required
 -------------------
 Charge =  0 Multiplicity = 1

                         Standard orientation:
 ---------------------------------------------------------------------
 Center     Atomic      Atomic             Coordinates (Angstroms)
 Number     Number       Type             X           Y           Z
 ---------------------------------------------------------------------
      1          6           0       -1.187090    0.461751    0.000000
      2          8           0       -0.000013    1.259140   -0.000001
      3          6           0        1.187081    0.461774    0.000000
      4          6           0        0.774709   -1.027709    0.000001
      5          6           0       -0.774688   -1.027722    0.000000
      6          1           0       -1.777694    0.723442    0.887922
      7          1           0       -1.777694    0.723441   -0.887923
      8          1           0        1.777682    0.723476   -0.887920
      9          1           0        1.777682    0.723477    0.887919
     10          1           0        1.170853   -1.543869   -0.880391
     11          1           0        1.170852   -1.543867    0.880393
     12          1           0       -1.170820   -1.543892   -0.880391
     13          1           0       -1.170820   -1.543892    0.880392
 ---------------------------------------------------------------------

 SCF Done:  E(RB3LYP) =  -232.461011216     A.U. after    1 cycles

 The electronic state is 1-A.
 Alpha  occ. eigenvalues --  -19.14530 -10.23091 -10.23090 -10.19479 -10.19460
 Alpha  occ. eigenvalues --   -1.02715  -0.78199  -0.74024  -0.59899  -0.59498
 Alpha  occ. eigenvalues --   -0.49937  -0.48631  -0.43227  -0.43057  -0.41279
 Alpha  occ. eigenvalues --   -0.36122  -0.35202  -0.33076  -0.31747  -0.24599
 Alpha virt. eigenvalues --    0.00769   0.02665   0.03260   0.03587   0.04880
 Alpha virt. eigenvalues --    0.05176   0.06558   0.07198   0.07598   0.10075
 Alpha virt. eigenvalues --    0.11111   0.11641   0.12308   0.13350   0.14606

 Mulliken charges:
               1
     1  C   -0.224730
     2  O   -0.341346
     3  C   -0.224734
     4  C   -0.387087
     5  C   -0.387090
     6  H    0.183339
     7  H    0.183338
     8  H    0.183338
     9  H    0.183338
    10  H    0.207908
    11  H    0.207908
    12  H    0.207908
    13  H    0.207908
 Sum of Mulliken charges =   0.00000

 Dipole moment (field-independent basis, Debye):
    X=              0.0000    Y=             -2.0319    Z=              0.0000  Tot=              2.0319
 Quadrupole moment (field-independent basis, Debye-Ang):
   XX=            -29.7509   YY=            -35.8321   ZZ=            -31.0678
   XY=              0.0001   XZ=              0.0000   YZ=              0.0000

  Exact polarizability:  53.469   0.000  47.390   0.000   0.000  43.202
 Approx polarizability:  66.234   0.000  60.347   0.000   0.000  60.177

 ******    2 imaginary frequencies (negative Signs) ******

                      1                      2                      3
                      A                      A                      A
 Frequencies --   -219.7363              -198.3448               704.8750
 Red. masses --      2.3722                 1.5911                 5.3818
 Frc consts  --      0.0675                 0.0369                 1.5754
 IR Inten    --      5.3733                 0.0000                 2.0462

                      4                      5                      6
                      A                      A                      A
 Frequencies --    713.6357               776.6889               844.0688
 Red. masses --      8.5785                 1.0858                 1.1630
 Frc consts  --      2.5740                 0.3859                 0.4882
 IR Inten    --      7.0972                 0.5466                 0.0000

                      7                      8                      9
                      A                      A                      A
 Frequencies --    894.7004               930.7668               960.5784
 Red. masses --      5.1614                 3.2374                 2.7389
 Frc consts  --      2.4343                 1.6524                 1.4890
 IR Inten    --      3.4747                30.4309                 7.5691

                     10                     11                     12
                      A                      A                      A
 Frequencies --    984.7274              1071.1969              1129.6972
 Red. masses --      1.2243                 3.4169                11.4949
 Frc consts  --      0.6994                 2.3100                 8.6433
 IR Inten    --      2.2353                 9.3613               141.8257

                     13                     14                     15
                      A                      A                      A
 Frequencies --   1168.4327              1208.5365              1254.4101
 Red. masses --      1.8131                 1.1591                 1.0383
 Frc consts  --      1.4584                 0.9974                 0.9626
 IR Inten    --      0.0000                 0.6379                 0.0000

                     16                     17                     18
                      A                      A                      A
 Frequencies --   1259.7747              1275.3569              1295.7513
 Red. masses --      1.1429                 1.0834                 1.2715
 Frc consts  --      1.0686                 1.0383                 1.2578
 IR Inten    --      0.5402                 0.0000                 4.0326

                     19                     20                     21
                      A                      A                      A
 Frequencies --   1334.0803              1383.1786              1418.0173
 Red. masses --      1.3893                 1.2690                 1.3338
 Frc consts  --      1.4568                 1.4304                 1.5801
 IR Inten    --      1.9184                 0.3906                 7.1772

                     22                     23                     24
                      A                      A                      A
 Frequencies --   1516.3431              1534.9677              1549.7245
 Red. masses --      1.0801                 1.0873                 1.0863
 Frc consts  --      1.4632                 1.5093                 1.5372
 IR Inten    --      1.7578                 3.5216                 1.0552

                     25                     26                     27
                      A                      A                      A
 Frequencies --   1563.6507              3021.8180              3028.8333
 Red. masses --      1.0951                 1.0553                 1.0574
 Frc consts  --      1.5776                 5.6777                 5.7154
 IR Inten    --      0.1671               142.2448                23.4024

                     28                     29                     30
                      A                      A                      A
 Frequencies --   3049.8287              3051.3628              3063.4471
 Red. masses --      1.1095                 1.1123                 1.0596
 Frc consts  --      6.0803                 6.1019                 5.8587
 IR Inten    --      0.0000                74.5621                45.6771

                     31                     32                     33
                      A                      A                      A
 Frequencies --   3076.2859              3096.5055              3119.0056
 Red. masses --      1.0614                 1.1078                 1.1071
 Frc consts  --      5.9179                 6.2580                 6.3458
 IR Inten    --     33.5619                 0.0000                73.8125

 - Thermochemistry -
 -------------------
 Temperature   298.150 Kelvin.  Pressure   1.00000 Atm.
 Atom     1 has atomic number  6 and mass  12.00000

 Molecular mass:    72.05751 amu.
 Principal axes and moments of inertia in atomic units:
                           1         2         3
     Eigenvalues --   259.94772 263.18829 478.11981
           X           -0.00007   1.00000   0.00000
           Y            1.00000   0.00007   0.00000
           Z            0.00000   0.00000   1.00000
 This molecule is an asymmetric top.
 Rotational symmetry number  1.
 Rotational temperatures (Kelvin)      0.33320     0.32909     0.18116
 Rotational constants (GHZ):           6.94271     6.85722     3.77466
    2 imaginary frequencies ignored.
 Zero-point vibrational energy     306724.0 (Joules/Mol)
                                   73.30879 (Kcal/Mol)
 Vibrational temperatures:   1014.16  1026.76  1117.48  1214.43  1287.27
          (Kelvin)           1339.17  1382.06  1416.80  1541.21  1625.38
                             1681.11  1738.81  1804.82  1812.53  1834.95
                             1864.30  1919.44  1990.09  2040.21  2181.68
                             2208.48  2229.71  2249.74  4347.72  4357.82
                             4388.02  4390.23  4407.62  4426.09  4455.18
                             4487.55

 Zero-point correction=                           0.116825 (Hartree/Particle)
 Thermal correction to Energy=                    0.120390
 Thermal correction to Enthalpy=                  0.121334
 Thermal correction to Gibbs Free Energy=         0.090147
 Sum of electronic and zero-point Energies=           -232.344186
 Sum of electronic and thermal Energies=              -232.340622
 Sum of electronic and thermal Enthalpies=            -232.339677
 Sum of electronic and thermal Free Energies=         -232.370865

                     E (Thermal)             CV                S
                      KCal/Mol        Cal/Mol-Kelvin    Cal/Mol-Kelvin
 Total                   75.546             12.882             65.639
 Electronic               0.000              0.000              0.000
 Translational            0.889              2.981             38.741
 Rotational               0.889              2.981             24.995
 Vibrational             73.768              6.921              1.902

 Optimization completed.
    -- Stationary point found.
 Normal termination of Gaussian 16 at Fri Sep 15 07:35:14 2023.
