 Gaussian 16, Revision B.01,
 Gaussian 16:  EM64L-G16RevB.01 20-Dec-2017

 ----------------------------------------------------------------------
 # opt freq b3lyp/6-31+g(d) empiricaldispersion=gd3 scf=maxcycle=1000 v
 olume
 ----------------------------------------------------------------------

 -------------------
 Title Card Required
 -------------------
 Symbolic Z-matrix:
 Charge =  0 Multiplicity = 1

 SCF Done:  E(RB3LYP) =  -194.369627758     A.U. after   11 cycles
 SCF Done:  E(RB3LYP) =  -194.369627851     A.U. after    7 cycles
 Optimization completed.
    -- Stationary point found.
 Normal termination of Gaussian 16 at Fri Sep 15 07:31:31 2023.

 ---------------------------------------------------------------------
 #N Geom=AllCheck Guess=TCheck SCRF=Check GenChk RB3LYP/6-31+G(d) Freq
 ---------------------------------------------------------------------

 Structure from the checkpoint file:  "MOLECULE_5-vol.chk"
 -------------------
 Title Card Required
 -------------------
 Charge =  0 Multiplicity = 1

                         Standard orientation:
 ---------------------------------------------------------------------
 Center     Atomic      Atomic             Coordinates (Angstroms)
 Number     Number       Type             X           Y           Z
 ---------------------------------------------------------------------
      1          6           0        1.269916   -0.681112   -0.084280
      2          6           0       -0.000003    0.043789    0.356894
      3          1           0       -0.000020    0.133922    1.453923
      4          1           0        2.161110   -0.138897    0.250349
      5          1           0        1.304439   -1.699038    0.323561
      6          1           0        1.300438   -0.743546   -1.178574
      7          6           0       -1.269796   -0.681328   -0.084305
      8          1           0       -2.161092   -0.139249    0.250277
      9          1           0       -1.300270   -0.743795   -1.178598
     10          1           0       -1.304179   -1.699249    0.323565
     11          8           0       -0.000065    1.363802   -0.230413
     12          1           0       -0.000608    2.031344    0.468944
 ---------------------------------------------------------------------

 SCF Done:  E(RB3LYP) =  -194.369627851     A.U. after    1 cycles

 The electronic state is 1-A.
 Alpha  occ. eigenvalues --  -19.15331 -10.24423 -10.17708 -10.17707  -1.01960
 Alpha  occ. eigenvalues --   -0.77495  -0.68961  -0.58819  -0.52831  -0.44660
 Alpha  occ. eigenvalues --   -0.42679  -0.39770  -0.38849  -0.37137  -0.35743
 Alpha  occ. eigenvalues --   -0.32495  -0.27554
 Alpha virt. eigenvalues --   -0.00362   0.02898   0.03241   0.04252   0.06401
 Alpha virt. eigenvalues --    0.07080   0.07261   0.08412   0.09131   0.11152
 Alpha virt. eigenvalues --    0.11600   0.14433   0.18334   0.18734   0.19519

 Mulliken charges:
               1
     1  C   -0.563336
     2  C   -0.090417
     3  H    0.163425
     4  H    0.200469
     5  H    0.193770
     6  H    0.212185
     7  C   -0.563299
     8  H    0.200451
     9  H    0.212188
    10  H    0.193769
    11  O   -0.610676
    12  H    0.451471
 Sum of Mulliken charges =   0.00000

 Dipole moment (field-independent basis, Debye):
    X=             -0.0008    Y=             -0.3668    Z=              1.8042  Tot=              1.8411
 Quadrupole moment (field-independent basis, Debye-Ang):
   XX=            -27.7354   YY=            -25.7862   ZZ=            -26.6886
   XY=             -0.0024   XZ=             -0.0008   YZ=              3.2973

  Exact polarizability:  43.867   0.000  43.661   0.000   0.534  38.823
 Approx polarizability:  51.329  -0.001  55.744  -0.001   0.137  53.276

 ******    1 imaginary frequencies (negative Signs) ******

                      1                      2                      3
                      A                      A                      A
 Frequencies --   -305.6712               227.4660               272.0454
 Red. masses --      1.1427                 1.0251                 1.0799
 Frc consts  --      0.0629                 0.0312                 0.0471
 IR Inten    --    110.6886                 0.1863                 0.6736

                      4                      5                      6
                      A                      A                      A
 Frequencies --    375.1779               420.5470               479.5061
 Red. masses --      2.1934                 2.8192                 2.1938
 Frc consts  --      0.1819                 0.2938                 0.2972
 IR Inten    --      0.4279                 0.6173                 9.6452

                      7                      8                      9
                      A                      A                      A
 Frequencies --    828.4576               939.2783               952.6166
 Red. masses --      2.7986                 1.3291                 1.3038
 Frc consts  --      1.1317                 0.6909                 0.6971
 IR Inten    --      3.0138                 0.0412                 1.5052

                     10                     11                     12
                      A                      A                      A
 Frequencies --    956.1677              1109.5269              1157.7816
 Red. masses --      2.6557                 1.3308                 2.0242
 Frc consts  --      1.4305                 0.9652                 1.5986
 IR Inten    --     76.0900                 3.5174                10.4204

                     13                     14                     15
                      A                      A                      A
 Frequencies --   1168.2598              1289.2894              1368.2363
 Red. masses --      1.7814                 1.4344                 1.3577
 Frc consts  --      1.4325                 1.4048                 1.4975
 IR Inten    --     69.2949                38.2224                 6.7682

                     16                     17                     18
                      A                      A                      A
 Frequencies --   1409.9597              1424.7794              1442.1072
 Red. masses --      1.2443                 1.3284                 1.2671
 Frc consts  --      1.4575                 1.5889                 1.5526
 IR Inten    --      4.9688                16.3818                17.5659

                     19                     20                     21
                      A                      A                      A
 Frequencies --   1500.7921              1507.4734              1516.1005
 Red. masses --      1.0451                 1.0486                 1.0568
 Frc consts  --      1.3869                 1.4040                 1.4312
 IR Inten    --      0.5626                 0.6233                 6.1863

                     22                     23                     24
                      A                      A                      A
 Frequencies --   1529.8270              3004.9981              3038.9633
 Red. masses --      1.0511                 1.0855                 1.0349
 Frc consts  --      1.4493                 5.7752                 5.6311
 IR Inten    --      8.4506                46.8593                27.6260

                     25                     26                     27
                      A                      A                      A
 Frequencies --   3044.8000              3106.5569              3113.9513
 Red. masses --      1.0355                 1.1020                 1.1019
 Frc consts  --      5.6559                 6.2662                 6.2952
 IR Inten    --     12.9478                 1.9211                56.9813

                     28                     29                     30
                      A                      A                      A
 Frequencies --   3116.7064              3120.1206              3795.4791
 Red. masses --      1.1031                 1.1024                 1.0678
 Frc consts  --      6.3134                 6.3230                 9.0628
 IR Inten    --     24.8916                48.1900                34.1662

 - Thermochemistry -
 -------------------
 Temperature   298.150 Kelvin.  Pressure   1.00000 Atm.
 Atom     1 has atomic number  6 and mass  12.00000

 Molecular mass:    60.05751 amu.
 Principal axes and moments of inertia in atomic units:
                           1         2         3
     Eigenvalues --   214.05872 224.67998 381.85299
           X            1.00000  -0.00014  -0.00001
           Y            0.00014   0.99927   0.03822
           Z            0.00000  -0.03822   0.99927
 This molecule is an asymmetric top.
 Rotational symmetry number  1.
 Rotational temperatures (Kelvin)      0.40463     0.38550     0.22683
 Rotational constants (GHZ):           8.43106     8.03250     4.72627
    1 imaginary frequencies ignored.
 Zero-point vibrational energy     282420.2 (Joules/Mol)
                                   67.50005 (Kcal/Mol)
 Warning -- explicit consideration of   5 degrees of freedom as
           vibrations may cause significant error
 Vibrational temperatures:    327.27   391.41   539.80   605.07   689.90
          (Kelvin)           1191.97  1351.41  1370.60  1375.71  1596.36
                             1665.79  1680.87  1855.00  1968.59  2028.62
                             2049.94  2074.87  2159.31  2168.92  2181.33
                             2201.08  4323.52  4372.39  4380.79  4469.64
                             4480.28  4484.25  4489.16  5460.85

 Zero-point correction=                           0.107568 (Hartree/Particle)
 Thermal correction to Energy=                    0.112567
 Thermal correction to Enthalpy=                  0.113511
 Thermal correction to Gibbs Free Energy=         0.080446
 Sum of electronic and zero-point Energies=           -194.262060
 Sum of electronic and thermal Energies=              -194.257061
 Sum of electronic and thermal Enthalpies=            -194.256117
 Sum of electronic and thermal Free Energies=         -194.289182

                     E (Thermal)             CV                S
                      KCal/Mol        Cal/Mol-Kelvin    Cal/Mol-Kelvin
 Total                   70.637             17.225             69.590
 Electronic               0.000              0.000              0.000
 Translational            0.889              2.981             38.198
 Rotational               0.889              2.981             24.422
 Vibrational             68.859             11.263              6.970
 Vibration     1          0.651              1.799              1.899
 Vibration     2          0.675              1.725              1.583
 Vibration     3          0.746              1.523              1.059
 Vibration     4          0.783              1.426              0.890
 Vibration     5          0.836              1.296              0.711

 Optimization completed.
    -- Stationary point found.
 Normal termination of Gaussian 16 at Fri Sep 15 07:31:45 2023.
