 Gaussian 16, Revision B.01,
 Gaussian 16:  EM64L-G16RevB.01 20-Dec-2017

 ----------------------------------------------------------------------
 # opt freq b3lyp/6-31+g(d) empiricaldispersion=gd3 scf=maxcycle=1000 v
 olume
 ----------------------------------------------------------------------

 -------------------
 Title Card Required
 -------------------
 Symbolic Z-matrix:
 Charge =  0 Multiplicity = 1

 SCF Done:  E(RB3LYP) =  -271.585120647     A.U. after   12 cycles
 Optimization completed.
    -- Stationary point found.
 Normal termination of Gaussian 16 at Fri Sep 15 07:31:53 2023.

 ---------------------------------------------------------------------
 #N Geom=AllCheck Guess=TCheck SCRF=Check GenChk RB3LYP/6-31+G(d) Freq
 ---------------------------------------------------------------------

 Structure from the checkpoint file:  "MOLECULE_6-vol.chk"
 -------------------
 Title Card Required
 -------------------
 Charge =  0 Multiplicity = 1

                         Standard orientation:
 ---------------------------------------------------------------------
 Center     Atomic      Atomic             Coordinates (Angstroms)
 Number     Number       Type             X           Y           Z
 ---------------------------------------------------------------------
      1          6           0       -1.202464    1.207043    0.002244
      2          6           0        0.195229    1.203834   -0.010039
      3          6           0        0.915357    0.000071   -0.013567
      4          6           0        0.195315   -1.203780   -0.010041
      5          6           0       -1.202349   -1.207107    0.002246
      6          6           0       -1.907599   -0.000049    0.009354
      7          1           0       -1.739977    2.152328    0.002593
      8          1           0        0.735292    2.148782   -0.018856
      9          1           0        0.735470   -2.148679   -0.018865
     10          1           0       -1.739807   -2.152424    0.002593
     11          1           0       -2.994624   -0.000111    0.016029
     12          6           0        2.427356    0.000025    0.010760
     13          1           0        2.803670   -0.003219    1.042890
     14          1           0        2.837455   -0.884997   -0.488805
     15          1           0        2.837449    0.888101   -0.483320
 ---------------------------------------------------------------------

 SCF Done:  E(RB3LYP) =  -271.585120647     A.U. after    1 cycles

 The electronic state is 1-A.
 Alpha  occ. eigenvalues --  -10.20347 -10.19512 -10.19505 -10.19306 -10.19234
 Alpha  occ. eigenvalues --  -10.19232 -10.18844  -0.85740  -0.77357  -0.74631
 Alpha  occ. eigenvalues --   -0.68788  -0.60713  -0.58621  -0.51315  -0.46055
 Alpha  occ. eigenvalues --   -0.45827  -0.42295  -0.42223  -0.41089  -0.38846
 Alpha  occ. eigenvalues --   -0.35640  -0.34488  -0.34233  -0.25389  -0.24525
 Alpha virt. eigenvalues --   -0.01283  -0.01098   0.00619   0.01940   0.02512
 Alpha virt. eigenvalues --    0.04136   0.04780   0.05089   0.06634   0.07011
 Alpha virt. eigenvalues --    0.07775   0.08221   0.09032   0.10405   0.12054

 Mulliken charges:
               1
     1  C   -0.121277
     2  C   -0.324463
     3  C    0.496664
     4  C   -0.319307
     5  C   -0.120109
     6  C   -0.188877
     7  H    0.176782
     8  H    0.171772
     9  H    0.171790
    10  H    0.176784
    11  H    0.176051
    12  C   -0.936671
    13  H    0.225680
    14  H    0.207645
    15  H    0.207534
 Sum of Mulliken charges =   0.00000

 Dipole moment (field-independent basis, Debye):
    X=              0.3928    Y=             -0.0005    Z=              0.0413  Tot=              0.3950
 Quadrupole moment (field-independent basis, Debye-Ang):
   XX=            -38.8043   YY=            -39.1879   ZZ=            -46.6968
   XY=             -0.0007   XZ=              0.0421   YZ=              0.0000

  Exact polarizability:  99.473  -0.006  87.468   0.280   0.000  50.083
 Approx polarizability: 147.024  -0.013 141.633   0.261   0.000  71.349

                      1                      2                      3
                      A                      A                      A
 Frequencies --     25.8961               207.7971               353.8529
 Red. masses --      1.0367                 3.0045                 2.5452
 Frc consts  --      0.0004                 0.0764                 0.1878
 IR Inten    --      0.3291                 2.5349                 0.3461

                      4                      5                      6
                      A                      A                      A
 Frequencies --    415.0726               473.9267               529.1423
 Red. masses --      2.9057                 2.7397                 5.1028
 Frc consts  --      0.2950                 0.3626                 0.8418
 IR Inten    --      0.0060                 9.2822                 0.6295

                      7                      8                      9
                      A                      A                      A
 Frequencies --    635.1545               704.9272               741.7518
 Red. masses --      6.3936                 2.4504                 1.3416
 Frc consts  --      1.5197                 0.7174                 0.4349
 IR Inten    --      0.0768                19.6102                64.7054

                     10                     11                     12
                      A                      A                      A
 Frequencies --    799.5400               856.7698               910.9186
 Red. masses --      4.5639                 1.2492                 1.3047
 Frc consts  --      1.7190                 0.5403                 0.6379
 IR Inten    --      0.7565                 0.0219                 0.8233

                     13                     14                     15
                      A                      A                      A
 Frequencies --    976.5576               998.3220              1014.8413
 Red. masses --      1.3674                 1.2702                 6.0256
 Frc consts  --      0.7683                 0.7459                 3.6563
 IR Inten    --      0.0006                 0.0354                 0.0527

                     16                     17                     18
                      A                      A                      A
 Frequencies --   1015.3533              1055.7792              1072.3086
 Red. masses --      1.4432                 2.2772                 1.5287
 Frc consts  --      0.8766                 1.4955                 1.0356
 IR Inten    --      0.1597                 3.9594                 7.7502

                     19                     20                     21
                      A                      A                      A
 Frequencies --   1121.3733              1198.1032              1219.7505
 Red. masses --      1.4908                 1.1079                 1.2064
 Frc consts  --      1.1045                 0.9370                 1.0576
 IR Inten    --      5.5631                 0.0700                 0.2415

                     22                     23                     24
                      A                      A                      A
 Frequencies --   1234.4368              1346.5377              1367.0214
 Red. masses --      2.6675                 4.0407                 1.4727
 Frc consts  --      2.3950                 4.3166                 1.6215
 IR Inten    --      1.3525                 0.0518                 0.0051

                     25                     26                     27
                      A                      A                      A
 Frequencies --   1438.7266              1482.4136              1513.6368
 Red. masses --      1.2362                 1.7578                 1.0523
 Frc consts  --      1.5076                 2.2760                 1.4205
 IR Inten    --      0.6036                 0.0364                 7.3656

                     28                     29                     30
                      A                      A                      A
 Frequencies --   1519.6109              1540.2423              1634.8313
 Red. masses --      1.1962                 2.2025                 5.1311
 Frc consts  --      1.6274                 3.0785                 8.0798
 IR Inten    --     12.7644                11.3439                 0.1697

                     31                     32                     33
                      A                      A                      A
 Frequencies --   1657.2610              3033.2292              3088.5142
 Red. masses --      5.4075                 1.0399                 1.0962
 Frc consts  --      8.7504                 5.6369                 6.1606
 IR Inten    --      8.8450                33.5747                20.8188

                     34                     35                     36
                      A                      A                      A
 Frequencies --   3112.9878              3166.5177              3168.1056
 Red. masses --      1.1026                 1.0860                 1.0878
 Frc consts  --      6.2952                 6.4159                 6.4328
 IR Inten    --     18.3176                10.9097                 7.5828

                     37                     38                     39
                      A                      A                      A
 Frequencies --   3181.4454              3190.2951              3203.1482
 Red. masses --      1.0899                 1.0937                 1.0976
 Frc consts  --      6.4997                 6.5588                 6.6348
 IR Inten    --      9.2779                47.3210                18.6510

 - Thermochemistry -
 -------------------
 Temperature   298.150 Kelvin.  Pressure   1.00000 Atm.
 Atom     1 has atomic number  6 and mass  12.00000

 Molecular mass:    92.06260 amu.
 Principal axes and moments of inertia in atomic units:
                           1         2         3
     Eigenvalues --   326.95729 720.897531036.56690
           X            1.00000   0.00000   0.00041
           Y            0.00000   1.00000   0.00000
           Z           -0.00041   0.00000   1.00000
 This molecule is an asymmetric top.
 Rotational symmetry number  1.
 Rotational temperatures (Kelvin)      0.26491     0.12015     0.08356
 Rotational constants (GHZ):           5.51981     2.50346     1.74108
 Zero-point vibrational energy     336187.1 (Joules/Mol)
                                   80.35065 (Kcal/Mol)
 Warning -- explicit consideration of   6 degrees of freedom as
           vibrations may cause significant error
 Vibrational temperatures:     37.26   298.97   509.12   597.20   681.87
          (Kelvin)            761.32   913.85  1014.23  1067.22  1150.36
                             1232.70  1310.61  1405.05  1436.36  1460.13
                             1460.87  1519.03  1542.81  1613.41  1723.80
                             1754.95  1776.08  1937.37  1966.84  2070.01
                             2132.86  2177.79  2186.38  2216.07  2352.16
                             2384.43  4364.14  4443.68  4478.90  4555.91
                             4558.20  4577.39  4590.12  4608.62

 Zero-point correction=                           0.128047 (Hartree/Particle)
 Thermal correction to Energy=                    0.134280
 Thermal correction to Enthalpy=                  0.135224
 Thermal correction to Gibbs Free Energy=         0.097076
 Sum of electronic and zero-point Energies=           -271.457074
 Sum of electronic and thermal Energies=              -271.450841
 Sum of electronic and thermal Enthalpies=            -271.449897
 Sum of electronic and thermal Free Energies=         -271.488045

                     E (Thermal)             CV                S
                      KCal/Mol        Cal/Mol-Kelvin    Cal/Mol-Kelvin
 Total                   84.262             23.188             80.289
 Electronic               0.000              0.000              0.000
 Translational            0.889              2.981             39.471
 Rotational               0.889              2.981             26.993
 Vibrational             82.484             17.227             13.824
 Vibration     1          0.593              1.985              6.121
 Vibration     2          0.641              1.829              2.063
 Vibration     3          0.730              1.567              1.149
 Vibration     4          0.778              1.438              0.909
 Vibration     5          0.831              1.308              0.727
 Vibration     6          0.884              1.186              0.589

                           ! Non-Optimized Parameters !
 Normal termination of Gaussian 16 at Fri Sep 15 07:32:31 2023.
