 Gaussian 09, Revision D.01,
 Gaussian 09:  EM64W-G09RevD.01 13-Apr-2013

 --------------------------------------------------------------------
 # opt freq b3lyp/6-31+g(d) empiricaldispersion=gd3 scf=maxcycle=1000
 --------------------------------------------------------------------

 -------------------
 Title Card Required
 -------------------
 Symbolic Z-matrix:
 Charge =  0 Multiplicity = 1

 SCF Done:  E(RB3LYP) =  -401.181406233     A.U. after   13 cycles
 SCF Done:  E(RB3LYP) =  -401.181580770     A.U. after   11 cycles
 SCF Done:  E(RB3LYP) =  -401.181592777     A.U. after   11 cycles
 SCF Done:  E(RB3LYP) =  -401.181540387     A.U. after   11 cycles
 SCF Done:  E(RB3LYP) =  -401.181617161     A.U. after   11 cycles
 SCF Done:  E(RB3LYP) =  -401.181617402     A.U. after    8 cycles
 SCF Done:  E(RB3LYP) =  -401.181617459     A.U. after   10 cycles
 SCF Done:  E(RB3LYP) =  -401.181617414     A.U. after    9 cycles
 SCF Done:  E(RB3LYP) =  -401.181617360     A.U. after    9 cycles
 SCF Done:  E(RB3LYP) =  -401.181617405     A.U. after    8 cycles
 Optimization completed.
    -- Stationary point found.
 Normal termination of Gaussian 09 at Sat Sep 16 02:05:22 2023.

 ---------------------------------------------------------------------
 #N Geom=AllCheck Guess=TCheck SCRF=Check GenChk RB3LYP/6-31+G(d) Freq
 ---------------------------------------------------------------------

 Structure from the checkpoint file:  "D:\PG\project pg\new opti with disp\Cu ligand\La.chk"
 -------------------
 Title Card Required
 -------------------
 Charge =  0 Multiplicity = 1

                         Standard orientation:
 ---------------------------------------------------------------------
 Center     Atomic      Atomic             Coordinates (Angstroms)
 Number     Number       Type             X           Y           Z
 ---------------------------------------------------------------------
      1          6           0        0.104701    0.342903    0.673305
      2          6           0       -0.713178    1.267051   -0.293973
      3          6           0       -2.092979    0.585469   -0.395336
      4          6           0       -1.757160   -0.890276   -0.163955
      5          1           0        0.328789    0.862459    1.611322
      6          1           0       -0.236249    1.303307   -1.279826
      7          1           0       -0.759514    2.292345    0.081773
      8          1           0       -2.757479    0.941249    0.400180
      9          1           0       -2.579639    0.767867   -1.359013
     10          1           0       -2.620595   -1.484438    0.154632
     11          1           0       -1.346038   -1.339965   -1.084995
     12          1           0       -0.259489   -1.670848    1.061960
     13          7           0       -0.772316   -0.805544    0.922317
     14          6           0        1.460011    0.041545    0.046905
     15          8           0        2.428795    0.767872    0.121381
     16          8           0        1.478392   -1.129431   -0.647839
     17          1           0        2.370568   -1.220855   -1.032271
 ---------------------------------------------------------------------

 SCF Done:  E(RB3LYP) =  -401.181617405     A.U. after    1 cycles

 The electronic state is 1-A.
 Alpha  occ. eigenvalues --  -19.21816 -19.15838 -14.33226 -10.33259 -10.23826
 Alpha  occ. eigenvalues --  -10.21507 -10.20441 -10.19492  -1.12161  -1.03165
 Alpha  occ. eigenvalues --   -0.93003  -0.77580  -0.75745  -0.65771  -0.60130
 Alpha  occ. eigenvalues --   -0.59402  -0.53655  -0.50361  -0.49093  -0.47340
 Alpha  occ. eigenvalues --   -0.45393  -0.42315  -0.40607  -0.39356  -0.38712
 Alpha  occ. eigenvalues --   -0.36559  -0.35469  -0.34432  -0.33391  -0.29654
 Alpha  occ. eigenvalues --   -0.23251
 Alpha virt. eigenvalues --   -0.01312  -0.00844   0.01335   0.02472   0.02657
 Alpha virt. eigenvalues --    0.03916   0.04948   0.05495   0.05935   0.06739
 Alpha virt. eigenvalues --    0.09238   0.09655   0.10202   0.10610   0.11110

 Mulliken charges:
               1
     1  C   -0.216735
     2  C   -0.303459
     3  C   -0.421784
     4  C   -0.290399
     5  H    0.220017
     6  H    0.211928
     7  H    0.216970
     8  H    0.214620
     9  H    0.201724
    10  H    0.191218
    11  H    0.198410
    12  H    0.384968
    13  N   -0.434833
    14  C    0.368636
    15  O   -0.439082
    16  O   -0.609177
    17  H    0.506978
 Sum of Mulliken charges =   0.00000

 Dipole moment (field-independent basis, Debye):
    X=             -1.1609    Y=             -1.2056    Z=             -1.3500  Tot=              2.1503
 Quadrupole moment (field-independent basis, Debye-Ang):
   XX=            -51.4263   YY=            -47.6039   ZZ=            -48.9186
   XY=             -6.5831   XZ=             -0.7120   YZ=              0.4755

  Exact polarizability:  80.862   3.063  70.018   0.479   2.821  61.168
 Approx polarizability: 102.696   7.832  99.481   0.798   5.865  88.195

                      1                      2                      3
                      A                      A                      A
 Frequencies --     36.7084                50.1881               204.7378
 Red. masses --      5.4609                 2.7517                 3.1988
 Frc consts  --      0.0043                 0.0041                 0.0790
 IR Inten    --      2.6182                 0.4897                 0.2666

                      4                      5                      6
                      A                      A                      A
 Frequencies --    249.1210               315.4456               432.3141
 Red. masses --      2.5139                 2.8347                 5.6784
 Frc consts  --      0.0919                 0.1662                 0.6253
 IR Inten    --      0.9370                 3.8350                 9.4199

                      7                      8                      9
                      A                      A                      A
 Frequencies --    557.7859               610.8132               616.7960
 Red. masses --      2.0373                 1.5305                 2.7041
 Frc consts  --      0.3735                 0.3364                 0.6061
 IR Inten    --     43.2812                45.3145                26.3804

                     10                     11                     12
                      A                      A                      A
 Frequencies --    648.0258               743.9743               781.5838
 Red. masses --      2.0887                 3.5621                 2.3309
 Frc consts  --      0.5168                 1.1616                 0.8389
 IR Inten    --     98.8607                35.3179                53.9451

                     13                     14                     15
                      A                      A                      A
 Frequencies --    840.9221               883.0177               926.2692
 Red. masses --      2.3907                 2.1169                 2.6090
 Frc consts  --      0.9961                 0.9725                 1.3188
 IR Inten    --     27.1780                14.2014                 9.5780

                     16                     17                     18
                      A                      A                      A
 Frequencies --    933.6068               950.8608               996.2435
 Red. masses --      1.9268                 2.3008                 2.0706
 Frc consts  --      0.9895                 1.2257                 1.2108
 IR Inten    --      1.7347                15.8781                 4.5914

                     19                     20                     21
                      A                      A                      A
 Frequencies --   1061.4565              1113.7027              1153.0890
 Red. masses --      1.7217                 1.9264                 3.6978
 Frc consts  --      1.1429                 1.4078                 2.8968
 IR Inten    --     18.2578                29.8515                47.5359

                     22                     23                     24
                      A                      A                      A
 Frequencies --   1170.3786              1204.9580              1216.2457
 Red. masses --      2.1428                 1.3804                 1.3762
 Frc consts  --      1.7293                 1.1809                 1.1994
 IR Inten    --    138.2302                24.7038                11.6776

                     25                     26                     27
                      A                      A                      A
 Frequencies --   1251.9498              1301.4209              1334.7830
 Red. masses --      1.2305                 1.2115                 1.2902
 Frc consts  --      1.1364                 1.2090                 1.3543
 IR Inten    --      4.4590                 6.4171                 4.7744

                     28                     29                     30
                      A                      A                      A
 Frequencies --   1341.3736              1354.2782              1368.1902
 Red. masses --      1.6336                 1.6163                 1.2467
 Frc consts  --      1.7318                 1.7466                 1.3750
 IR Inten    --     13.2782                14.1956                 9.8696

                     31                     32                     33
                      A                      A                      A
 Frequencies --   1381.0505              1469.8116              1510.3097
 Red. masses --      1.4499                 1.3547                 1.0901
 Frc consts  --      1.6294                 1.7243                 1.4651
 IR Inten    --     14.8277                21.8298                 2.6072

                     34                     35                     36
                      A                      A                      A
 Frequencies --   1525.2709              1544.9113              1811.3618
 Red. masses --      1.0918                 1.1010                 9.6855
 Frc consts  --      1.4965                 1.5483                18.7232
 IR Inten    --      3.3256                 0.1625               341.0381

                     37                     38                     39
                      A                      A                      A
 Frequencies --   2970.0286              3064.4565              3066.8595
 Red. masses --      1.0726                 1.0629                 1.0725
 Frc consts  --      5.5744                 5.8807                 5.9435
 IR Inten    --     77.3664                21.7066                25.8997

                     40                     41                     42
                      A                      A                      A
 Frequencies --   3071.0741              3087.0909              3111.8484
 Red. masses --      1.0808                 1.0887                 1.1019
 Frc consts  --      6.0060                 6.1131                 6.2868
 IR Inten    --     16.0399                48.8040                26.5227

                     43                     44                     45
                      A                      A                      A
 Frequencies --   3128.9289              3551.9050              3685.7444
 Red. masses --      1.1030                 1.0751                 1.0646
 Frc consts  --      6.3623                 7.9913                 8.5208
 IR Inten    --     33.3963                 4.4901                61.2932

 - Thermochemistry -
 -------------------
 Temperature   298.150 Kelvin.  Pressure   1.00000 Atm.
 Atom     1 has atomic number  6 and mass  12.00000

 Molecular mass:   115.06333 amu.
 Principal axes and moments of inertia in atomic units:
                           1         2         3
     Eigenvalues --   457.217681162.309451353.46860
           X            0.99986  -0.01577   0.00635
           Y            0.01578   0.99987  -0.00123
           Z           -0.00633   0.00133   0.99998
 This molecule is an asymmetric top.
 Rotational symmetry number  1.
 Warning -- assumption of classical behavior for rotation
           may cause significant error
 Rotational temperatures (Kelvin)      0.18944     0.07452     0.06399
 Rotational constants (GHZ):           3.94723     1.55272     1.33342
 Zero-point vibrational energy     380597.3 (Joules/Mol)
                                   90.96493 (Kcal/Mol)
 Warning -- explicit consideration of   9 degrees of freedom as
           vibrations may cause significant error
 Vibrational temperatures:     52.82    72.21   294.57   358.43   453.86
          (Kelvin)            622.00   802.53   878.82   887.43   932.36
                             1070.41  1124.52  1209.90  1270.46  1332.69
                             1343.25  1368.07  1433.37  1527.20  1602.37
                             1659.04  1683.91  1733.66  1749.90  1801.27
                             1872.45  1920.45  1929.94  1948.50  1968.52
                             1987.02  2114.73  2173.00  2194.52  2222.78
                             2606.14  4273.20  4409.06  4412.52  4418.59
                             4441.63  4477.25  4501.83  5110.39  5302.96

 Zero-point correction=                           0.144962 (Hartree/Particle)
 Thermal correction to Energy=                    0.152535
 Thermal correction to Enthalpy=                  0.153479
 Thermal correction to Gibbs Free Energy=         0.111669
 Sum of electronic and zero-point Energies=           -401.036656
 Sum of electronic and thermal Energies=              -401.029082
 Sum of electronic and thermal Enthalpies=            -401.028138
 Sum of electronic and thermal Free Energies=         -401.069948

                     E (Thermal)             CV                S
                      KCal/Mol        Cal/Mol-Kelvin    Cal/Mol-Kelvin
 Total                   95.717             27.588             87.997
 Electronic               0.000              0.000              0.000
 Translational            0.889              2.981             40.136
 Rotational               0.889              2.981             28.066
 Vibrational             93.940             21.627             19.795
 Vibration     1          0.594              1.982              5.429
 Vibration     2          0.595              1.978              4.810
 Vibration     3          0.640              1.833              2.090
 Vibration     4          0.662              1.764              1.737
 Vibration     5          0.703              1.644              1.334
 Vibration     6          0.793              1.400              0.851
 Vibration     7          0.913              1.123              0.528
 Vibration     8          0.970              1.009              0.431
 Vibration     9          0.976              0.996              0.422

 Normal termination of Gaussian 09 at Sat Sep 16 02:08:11 2023.
