 Gaussian 09, Revision D.01,
 Gaussian 09:  EM64W-G09RevD.01 13-Apr-2013

 --------------------------------------------------------------------
 # opt freq b3lyp/6-31+g(d) empiricaldispersion=gd3 scf=maxcycle=1000
 --------------------------------------------------------------------

 -------------------
 Title Card Required
 -------------------
 Symbolic Z-matrix:
 Charge =  0 Multiplicity = 1

 SCF Done:  E(RB3LYP) =  -571.645586289     A.U. after   14 cycles
 SCF Done:  E(RB3LYP) =  -571.645656531     A.U. after   11 cycles
 SCF Done:  E(RB3LYP) =  -571.645662099     A.U. after   10 cycles
 Optimization completed.
    -- Stationary point found.
 Normal termination of Gaussian 09 at Sat Sep 16 03:47:23 2023.

 ---------------------------------------------------------------------
 #N Geom=AllCheck Guess=TCheck SCRF=Check GenChk RB3LYP/6-31+G(d) Freq
 ---------------------------------------------------------------------

 Structure from the checkpoint file:  "D:\PG\project pg\new opti with disp\Cu ligand\Li.chk"
 -------------------
 Title Card Required
 -------------------
 Charge =  0 Multiplicity = 1

                         Standard orientation:
 ---------------------------------------------------------------------
 Center     Atomic      Atomic             Coordinates (Angstroms)
 Number     Number       Type             X           Y           Z
 ---------------------------------------------------------------------
      1          6           0        3.485862   -0.371631    0.000007
      2          6           0        2.830524    0.843208    0.000006
      3          6           0        1.417283    0.870204    0.000003
      4          6           0        0.729638   -0.379737    0.000000
      5          6           0        2.707648   -1.549923    0.000005
      6          6           0        0.681175    2.102697    0.000001
      7          6           0       -0.729638   -0.379737    0.000000
      8          6           0       -1.417283    0.870204   -0.000004
      9          6           0       -0.681175    2.102697   -0.000003
     10          6           0       -2.830524    0.843208   -0.000007
     11          1           0       -3.383584    1.780182   -0.000010
     12          6           0       -3.485862   -0.371631   -0.000006
     13          6           0       -2.707648   -1.549923   -0.000004
     14          1           0        1.235382    3.038783    0.000002
     15          1           0        4.570583   -0.431934    0.000009
     16          1           0        3.383584    1.780182    0.000008
     17          1           0        3.196147   -2.523705    0.000004
     18          1           0       -1.235382    3.038783   -0.000006
     19          1           0       -4.570583   -0.431934   -0.000008
     20          1           0       -3.196147   -2.523705   -0.000001
     21          7           0        1.384049   -1.564605    0.000002
     22          7           0       -1.384049   -1.564605    0.000000
 ---------------------------------------------------------------------

 SCF Done:  E(RB3LYP) =  -571.645662099     A.U. after    1 cycles

 The electronic state is 1-A.
 Alpha  occ. eigenvalues --  -14.33688 -14.33688 -10.23794 -10.23758 -10.23195
 Alpha  occ. eigenvalues --  -10.23195 -10.21954 -10.21954 -10.21895 -10.21894
 Alpha  occ. eigenvalues --  -10.21274 -10.21202 -10.21017 -10.21017  -0.96190
 Alpha  occ. eigenvalues --   -0.93940  -0.85833  -0.81790  -0.80971  -0.75779
 Alpha  occ. eigenvalues --   -0.75370  -0.66627  -0.65469  -0.63952  -0.61069
 Alpha  occ. eigenvalues --   -0.56460  -0.54270  -0.52258  -0.49666  -0.49366
 Alpha  occ. eigenvalues --   -0.47362  -0.45088  -0.43269  -0.43047  -0.42017
 Alpha  occ. eigenvalues --   -0.41624  -0.40827  -0.39362  -0.38061  -0.36333
 Alpha  occ. eigenvalues --   -0.34636  -0.30871  -0.30153  -0.26665  -0.25320
 Alpha  occ. eigenvalues --   -0.25003  -0.23965
 Alpha virt. eigenvalues --   -0.06413  -0.06241  -0.02147  -0.00095   0.00328
 Alpha virt. eigenvalues --    0.00693   0.01575   0.02865   0.03219   0.03884
 Alpha virt. eigenvalues --    0.04269   0.04332   0.05075   0.05693   0.06521

 Mulliken charges:
               1
     1  C   -0.515605
     2  C    0.062507
     3  C    1.073042
     4  C   -1.409073
     5  C    0.131622
     6  C    0.035066
     7  C   -1.409073
     8  C    1.073043
     9  C    0.035065
    10  C    0.062507
    11  H    0.189927
    12  C   -0.515605
    13  C    0.131622
    14  H    0.185578
    15  H    0.189701
    16  H    0.189927
    17  H    0.180708
    18  H    0.185578
    19  H    0.189701
    20  H    0.180708
    21  N   -0.123473
    22  N   -0.123473
 Sum of Mulliken charges =   0.00000

 Dipole moment (field-independent basis, Debye):
    X=              0.0000    Y=              3.4254    Z=              0.0000  Tot=              3.4254
 Quadrupole moment (field-independent basis, Debye-Ang):
   XX=            -60.3908   YY=            -79.2054   ZZ=            -85.1475
   XY=              0.0000   XZ=              0.0000   YZ=              0.0000

  Exact polarizability: 239.146   0.000 161.892   0.000   0.000  74.338
 Approx polarizability: 383.681   0.000 292.331   0.001   0.000 114.709

                      1                      2                      3
                      A                      A                      A
 Frequencies --     99.1793               105.6810               233.8798
 Red. masses --      4.9002                 4.7088                 3.5553
 Frc consts  --      0.0284                 0.0310                 0.1146
 IR Inten    --      5.7759                 0.0000                 3.5631

                      4                      5                      6
                      A                      A                      A
 Frequencies --    240.3593               241.5889               409.7280
 Red. masses --      5.0079                 5.5264                 3.8296
 Frc consts  --      0.1705                 0.1900                 0.3788
 IR Inten    --      0.0000                 3.9912                 0.0000

                      7                      8                      9
                      A                      A                      A
 Frequencies --    413.8444               440.9553               465.2615
 Red. masses --      6.9405                 3.9686                 6.4914
 Frc consts  --      0.7003                 0.4547                 0.8279
 IR Inten    --      1.9378                 0.0007                 0.3008

                     10                     11                     12
                      A                      A                      A
 Frequencies --    501.9513               522.6906               560.0274
 Red. masses --      3.1938                 4.9906                 3.0738
 Frc consts  --      0.4741                 0.8033                 0.5680
 IR Inten    --      0.6747                 0.7732                 0.0000

                     13                     14                     15
                      A                      A                      A
 Frequencies --    560.2651               611.6240               629.8857
 Red. masses --      7.5376                 3.6366                 8.0999
 Frc consts  --      1.3940                 0.8015                 1.8934
 IR Inten    --      0.0332                 0.0000                 6.6846

                     16                     17                     18
                      A                      A                      A
 Frequencies --    714.3846               738.5045               750.3122
 Red. masses --      6.9633                 6.2259                 3.4539
 Frc consts  --      2.0938                 2.0006                 1.1456
 IR Inten    --      2.4772                 4.0313                36.1996

                     19                     20                     21
                      A                      A                      A
 Frequencies --    773.0813               812.9706               841.3350
 Red. masses --      1.1993                 1.3028                 9.0424
 Frc consts  --      0.4223                 0.5073                 3.7711
 IR Inten    --     18.2620                 0.0000                 0.0000

                     22                     23                     24
                      A                      A                      A
 Frequencies --    854.5444               867.9545               895.1663
 Red. masses --      1.6723                 6.5530                 5.2564
 Frc consts  --      0.7195                 2.9086                 2.4817
 IR Inten    --     73.6152                 4.3281                 4.5572

                     25                     26                     27
                      A                      A                      A
 Frequencies --    961.4925               963.7044               977.8611
 Red. masses --      1.3495                 1.3903                 1.3453
 Frc consts  --      0.7351                 0.7608                 0.7579
 IR Inten    --      0.0000                 1.0884                 0.0000

                     28                     29                     30
                      A                      A                      A
 Frequencies --    995.4996               999.5939              1050.2939
 Red. masses --      1.3609                 1.3709                 5.2587
 Frc consts  --      0.7946                 0.8071                 3.4178
 IR Inten    --      1.2774                 0.0000                 2.3685

                     31                     32                     33
                      A                      A                      A
 Frequencies --   1062.0967              1097.3885              1121.6666
 Red. masses --      2.6187                 2.4957                 2.3195
 Frc consts  --      1.7405                 1.7708                 1.7194
 IR Inten    --      0.4272                 3.2175                10.8155

                     34                     35                     36
                      A                      A                      A
 Frequencies --   1171.4359              1180.2122              1229.9684
 Red. masses --      1.2551                 1.2806                 3.1904
 Frc consts  --      1.0148                 1.0510                 2.8437
 IR Inten    --      8.4968                 1.3052                 0.3434

                     37                     38                     39
                      A                      A                      A
 Frequencies --   1241.1263              1251.7570              1302.1280
 Red. masses --      1.5513                 1.8220                 1.8818
 Frc consts  --      1.4079                 1.6820                 1.8799
 IR Inten    --      0.1943                 0.5324                 1.0783

                     40                     41                     42
                      A                      A                      A
 Frequencies --   1333.4023              1354.2990              1386.9730
 Red. masses --      3.2831                 6.5638                 2.1766
 Frc consts  --      3.4391                 7.0931                 2.4670
 IR Inten    --      1.9963                 1.1678                 1.7477

                     43                     44                     45
                      A                      A                      A
 Frequencies --   1423.2625              1454.9860              1462.0027
 Red. masses --      3.9459                 1.8359                 2.0687
 Frc consts  --      4.7094                 2.2899                 2.6053
 IR Inten    --      0.0435                 2.3923                43.3589

                     46                     47                     48
                      A                      A                      A
 Frequencies --   1487.0624              1539.0355              1544.0840
 Red. masses --      2.6528                 3.2288                 3.8886
 Frc consts  --      3.4563                 4.5060                 5.4624
 IR Inten    --      1.0338                 7.9875                38.6087

                     49                     50                     51
                      A                      A                      A
 Frequencies --   1596.1203              1641.5552              1655.2292
 Red. masses --      6.1988                 5.6399                 6.1638
 Frc consts  --      9.3045                 8.9543                 9.9499
 IR Inten    --     15.7787                10.6472                11.4153

                     52                     53                     54
                      A                      A                      A
 Frequencies --   1664.2346              3162.2089              3162.6536
 Red. masses --      6.1156                 1.0891                 1.0893
 Frc consts  --      9.9797                 6.4167                 6.4197
 IR Inten    --      5.3477                21.6460                30.2066

                     55                     56                     57
                      A                      A                      A
 Frequencies --   3171.2431              3179.4250              3179.9968
 Red. masses --      1.0865                 1.0897                 1.0894
 Frc consts  --      6.4380                 6.4904                 6.4906
 IR Inten    --      1.2152                17.9075                 1.1855

                     58                     59                     60
                      A                      A                      A
 Frequencies --   3190.7867              3207.3415              3207.6143
 Red. masses --      1.0960                 1.0962                 1.0962
 Frc consts  --      6.5745                 6.6443                 6.6450
 IR Inten    --     35.0912                55.0738                 0.0078

 - Thermochemistry -
 -------------------
 Temperature   298.150 Kelvin.  Pressure   1.00000 Atm.
 Atom     1 has atomic number  6 and mass  12.00000

 Molecular mass:   180.06875 amu.
 Principal axes and moments of inertia in atomic units:
                           1         2         3
     Eigenvalues --  1115.874783122.851414238.72619
           X            1.00000   0.00000   0.00000
           Y            0.00000   1.00000   0.00000
           Z            0.00000   0.00000   1.00000
 This molecule is an asymmetric top.
 Rotational symmetry number  1.
 Warning -- assumption of classical behavior for rotation
           may cause significant error
 Rotational temperatures (Kelvin)      0.07762     0.02774     0.02043
 Rotational constants (GHZ):           1.61733     0.57791     0.42577
 Zero-point vibrational energy     447971.1 (Joules/Mol)
                                  107.06766 (Kcal/Mol)
 Warning -- explicit consideration of  14 degrees of freedom as
           vibrations may cause significant error
 Vibrational temperatures:    142.70   152.05   336.50   345.82   347.59
          (Kelvin)            589.51   595.43   634.44   669.41   722.20
                              752.03   805.75   806.10   879.99   906.26
                             1027.84  1062.54  1079.53  1112.29  1169.68
                             1210.49  1229.50  1248.79  1287.94  1383.37
                             1386.55  1406.92  1432.30  1438.19  1511.14
                             1528.12  1578.90  1613.83  1685.43  1698.06
                             1769.65  1785.70  1801.00  1873.47  1918.47
                             1948.53  1995.54  2047.75  2093.40  2103.49
                             2139.55  2214.33  2221.59  2296.46  2361.83
                             2381.50  2394.46  4549.71  4550.35  4562.71
                             4574.48  4575.30  4590.82  4614.64  4615.04

 Zero-point correction=                           0.170623 (Hartree/Particle)
 Thermal correction to Energy=                    0.179812
 Thermal correction to Enthalpy=                  0.180757
 Thermal correction to Gibbs Free Energy=         0.135907
 Sum of electronic and zero-point Energies=           -571.475039
 Sum of electronic and thermal Energies=              -571.465850
 Sum of electronic and thermal Enthalpies=            -571.464905
 Sum of electronic and thermal Free Energies=         -571.509755

                     E (Thermal)             CV                S
                      KCal/Mol        Cal/Mol-Kelvin    Cal/Mol-Kelvin
 Total                  112.834             38.621             94.393
 Electronic               0.000              0.000              0.000
 Translational            0.889              2.981             41.471
 Rotational               0.889              2.981             31.069
 Vibrational            111.057             32.659             21.853
 Vibration     1          0.604              1.950              3.470
 Vibration     2          0.605              1.945              3.347
 Vibration     3          0.654              1.789              1.849
 Vibration     4          0.657              1.779              1.800
 Vibration     5          0.658              1.777              1.791
 Vibration     6          0.774              1.449              0.928
 Vibration     7          0.777              1.440              0.913
 Vibration     8          0.801              1.381              0.824
 Vibration     9          0.823              1.327              0.751
 Vibration    10          0.857              1.246              0.653
 Vibration    11          0.878              1.200              0.604
 Vibration    12          0.916              1.118              0.524
 Vibration    13          0.916              1.117              0.523
 Vibration    14          0.971              1.007              0.430

 Optimization completed.
    -- Stationary point found.
 Normal termination of Gaussian 09 at Sat Sep 16 03:58:12 2023.
