 Gaussian 09, Revision D.01,
 Gaussian 09:  EM64W-G09RevD.01 13-Apr-2013

 --------------------------------------------------------------------
 # opt freq b3lyp/6-31+g(d) empiricaldispersion=gd3 scf=maxcycle=1000
 --------------------------------------------------------------------

 -------------------
 Title Card Required
 -------------------
 Symbolic Z-matrix:
 Charge =  0 Multiplicity = 1

 SCF Done:  E(RB3LYP) =  -921.088059241     A.U. after   15 cycles
 SCF Done:  E(RB3LYP) =  -921.088061526     A.U. after   11 cycles
 SCF Done:  E(RB3LYP) =  -921.088061829     A.U. after   10 cycles
 SCF Done:  E(RB3LYP) =  -921.088061900     A.U. after    9 cycles
 SCF Done:  E(RB3LYP) =  -921.088061948     A.U. after    9 cycles
 SCF Done:  E(RB3LYP) =  -921.088061975     A.U. after    9 cycles
 Optimization completed.
    -- Stationary point found.
 Normal termination of Gaussian 09 at Sat Sep 16 02:24:53 2023.

 ---------------------------------------------------------------------
 #N Geom=AllCheck Guess=TCheck SCRF=Check GenChk RB3LYP/6-31+G(d) Freq
 ---------------------------------------------------------------------

 Structure from the checkpoint file:  "D:\Reaction optimization project\source code\DFT\opti\ligand\input\molecule.chk"
 -------------------
 Title Card Required
 -------------------
 Charge =  0 Multiplicity = 1

                         Standard orientation:
 ---------------------------------------------------------------------
 Center     Atomic      Atomic             Coordinates (Angstroms)
 Number     Number       Type             X           Y           Z
 ---------------------------------------------------------------------
      1          6           0       -1.234074    3.669557   -2.043523
      2          6           0       -0.222699    3.985325   -1.162246
      3          6           0        0.294578    3.011841   -0.264736
      4          6           0       -0.247098    1.683183   -0.277216
      5          6           0       -1.290134    1.390560   -1.201042
      6          6           0       -1.769614    2.357044   -2.059559
      7          1           0        1.752229    4.320490    0.666012
      8          1           0       -1.621654    4.421478   -2.725954
      9          1           0        0.196489    4.989361   -1.140797
     10          6           0        1.337582    3.315115    0.649492
     11          6           0        0.270110    0.694898    0.616369
     12          1           0       -1.705073    0.387511   -1.221122
     13          1           0       -2.566479    2.110800   -2.756991
     14          6           0        1.290134    1.042384    1.486169
     15          6           0        1.827004    2.355185    1.503961
     16          1           0        2.629362    2.595081    2.199979
     17          6           0       -0.270110   -0.694898    0.616369
     18          6           0        0.247098   -1.683183   -0.277216
     19          6           0       -1.290134   -1.042384    1.486169
     20          6           0        1.290134   -1.390560   -1.201042
     21          6           0       -0.294578   -3.011841   -0.264736
     22          6           0       -1.827004   -2.355185    1.503961
     23          6           0        1.769614   -2.357044   -2.059559
     24          1           0        1.705073   -0.387511   -1.221122
     25          6           0        0.222699   -3.985325   -1.162246
     26          6           0       -1.337582   -3.315115    0.649492
     27          1           0       -2.629362   -2.595081    2.199979
     28          6           0        1.234074   -3.669557   -2.043523
     29          1           0        2.566479   -2.110800   -2.756991
     30          1           0       -0.196489   -4.989361   -1.140797
     31          1           0       -1.752229   -4.320490    0.666012
     32          1           0        1.621654   -4.421478   -2.725954
     33          8           0        1.776345    0.071841    2.325642
     34          1           0        2.473450    0.442138    2.887724
     35          8           0       -1.776345   -0.071841    2.325642
     36          1           0       -2.473450   -0.442138    2.887724
 ---------------------------------------------------------------------

 SCF Done:  E(RB3LYP) =  -921.088061975     A.U. after    1 cycles

 The electronic state is 1-A.
 Alpha  occ. eigenvalues --  -19.18975 -19.18975 -10.25668 -10.25667 -10.20311
 Alpha  occ. eigenvalues --  -10.20311 -10.20245 -10.20245 -10.20180 -10.20180
 Alpha  occ. eigenvalues --  -10.19968 -10.19968 -10.19742 -10.19713 -10.19419
 Alpha  occ. eigenvalues --  -10.19418 -10.19243 -10.19243 -10.19119 -10.19119
 Alpha  occ. eigenvalues --  -10.18795 -10.18795  -1.06852  -1.06623  -0.88214
 Alpha  occ. eigenvalues --   -0.87032  -0.82515  -0.81910  -0.79770  -0.76139
 Alpha  occ. eigenvalues --   -0.74048  -0.73980  -0.73197  -0.71288  -0.64023
 Alpha  occ. eigenvalues --   -0.63067  -0.62749  -0.62158  -0.60855  -0.57780
 Alpha  occ. eigenvalues --   -0.55650  -0.55540  -0.52506  -0.50827  -0.50581
 Alpha  occ. eigenvalues --   -0.49692  -0.47431  -0.47283  -0.45091  -0.43903
 Alpha  occ. eigenvalues --   -0.43748  -0.43106  -0.42621  -0.42614  -0.42097
 Alpha  occ. eigenvalues --   -0.40829  -0.40815  -0.40327  -0.39730  -0.37725
 Alpha  occ. eigenvalues --   -0.37097  -0.36966  -0.36343  -0.35122  -0.35084
 Alpha  occ. eigenvalues --   -0.34302  -0.32375  -0.31201  -0.31157  -0.28107
 Alpha  occ. eigenvalues --   -0.27844  -0.23800  -0.23731  -0.20954  -0.20908
 Alpha virt. eigenvalues --   -0.04470  -0.04378  -0.01287  -0.00818  -0.00732
 Alpha virt. eigenvalues --   -0.00213   0.01116   0.01173   0.01725   0.01849
 Alpha virt. eigenvalues --    0.02091   0.02302   0.03480   0.03509   0.04479

 Mulliken charges:
               1
     1  C   -0.456370
     2  C   -0.138405
     3  C    0.441251
     4  C    0.535441
     5  C   -0.446460
     6  C   -0.468730
     7  H    0.184552
     8  H    0.177567
     9  H    0.178905
    10  C   -0.535640
    11  C   -0.022043
    12  H    0.202117
    13  H    0.178005
    14  C    0.566403
    15  C   -0.419294
    16  H    0.167334
    17  C   -0.022043
    18  C    0.535441
    19  C    0.566403
    20  C   -0.446460
    21  C    0.441251
    22  C   -0.419294
    23  C   -0.468730
    24  H    0.202117
    25  C   -0.138405
    26  C   -0.535640
    27  H    0.167334
    28  C   -0.456370
    29  H    0.178005
    30  H    0.178905
    31  H    0.184552
    32  H    0.177567
    33  O   -0.653669
    34  H    0.509037
    35  O   -0.653669
    36  H    0.509037
 Sum of Mulliken charges =   0.00000

 Dipole moment (field-independent basis, Debye):
    X=              0.0000    Y=              0.0000    Z=              1.4261  Tot=              1.4261
 Quadrupole moment (field-independent basis, Debye-Ang):
   XX=           -115.9933   YY=           -116.8938   ZZ=           -118.7607
   XY=              9.8052   XZ=              0.0000   YZ=              0.0000

  Exact polarizability: 219.845   4.743 292.341   0.000   0.000 234.214
 Approx polarizability: 383.898  15.132 441.190   0.000   0.000 406.300

                      1                      2                      3
                      A                      B                      A
 Frequencies --     15.1132                53.8753                54.9636
 Red. masses --      5.6676                 4.7276                 4.7779
 Frc consts  --      0.0008                 0.0081                 0.0085
 IR Inten    --      0.0877                 1.3705                 1.3454

                      4                      5                      6
                      B                      A                      B
 Frequencies --    107.4761               108.4736               148.4935
 Red. masses --      6.0325                 5.7256                 4.1481
 Frc consts  --      0.0411                 0.0397                 0.0539
 IR Inten    --      0.8676                 0.9663                 0.1016

                      7                      8                      9
                      A                      A                      B
 Frequencies --    149.5862               192.4606               233.5219
 Red. masses --      4.1627                 6.4305                 4.5365
 Frc consts  --      0.0549                 0.1403                 0.1458
 IR Inten    --      0.0105                 2.3387                 7.5408

                     10                     11                     12
                      A                      B                      B
 Frequencies --    236.7749               310.0901               311.4171
 Red. masses --      4.7310                 4.0779                 1.1493
 Frc consts  --      0.1563                 0.2310                 0.0657
 IR Inten    --      4.1670                18.0614                72.0242

                     13                     14                     15
                      A                      A                      B
 Frequencies --    324.5285               352.5071               360.6401
 Red. masses --      1.1193                 4.9018                 5.2864
 Frc consts  --      0.0695                 0.3589                 0.4051
 IR Inten    --     72.7852                 0.6023                 1.9152

                     16                     17                     18
                      A                      B                      A
 Frequencies --    371.3296               428.6145               429.9559
 Red. masses --      5.2823                 3.4714                 3.6697
 Frc consts  --      0.4291                 0.3757                 0.3997
 IR Inten    --      5.2169                 0.8696                 0.0173

                     19                     20                     21
                      B                      A                      B
 Frequencies --    441.7331               443.7682               493.7761
 Red. masses --      6.7761                 5.8194                 4.1308
 Frc consts  --      0.7790                 0.6752                 0.5934
 IR Inten    --      4.7728                 4.5064                11.3215

                     22                     23                     24
                      A                      B                      A
 Frequencies --    516.7296               532.6333               540.0189
 Red. masses --      3.7959                 5.8699                 3.4847
 Frc consts  --      0.5972                 0.9812                 0.5987
 IR Inten    --     12.7749                 2.1163                 0.5647

                     25                     26                     27
                      B                      A                      B
 Frequencies --    542.8571               543.1372               581.6752
 Red. masses --      3.4020                 6.4428                 3.7750
 Frc consts  --      0.5907                 1.1198                 0.7525
 IR Inten    --      0.7885                 2.1305                 3.8622

                     28                     29                     30
                      A                      B                      A
 Frequencies --    592.7793               640.6172               680.1764
 Red. masses --      3.6275                 6.3665                 6.1496
 Frc consts  --      0.7510                 1.5394                 1.6763
 IR Inten    --      0.0162                 8.6439                 4.1321

                     31                     32                     33
                      B                      A                      B
 Frequencies --    685.7474               687.5288               730.1784
 Red. masses --      3.3734                 3.3237                 6.6748
 Frc consts  --      0.9346                 0.9257                 2.0967
 IR Inten    --      5.1107                 5.6201                 2.4244

                     34                     35                     36
                      A                      B                      A
 Frequencies --    737.3435               755.9251               758.0974
 Red. masses --      6.4513                 1.3783                 1.3613
 Frc consts  --      2.0665                 0.4641                 0.4609
 IR Inten    --      2.1430                24.5037                19.6968

                     37                     38                     39
                      B                      A                      B
 Frequencies --    784.3948               790.1980               805.4189
 Red. masses --      3.7295                 3.5826                 3.4184
 Frc consts  --      1.3520                 1.3180                 1.3065
 IR Inten    --      6.4136                 4.1711                 3.1808

                     40                     41                     42
                      A                      B                      A
 Frequencies --    814.2777               815.9672               864.5516
 Red. masses --      1.6050                 1.8484                 4.6497
 Frc consts  --      0.6270                 0.7251                 2.0477
 IR Inten    --     55.8335                60.6083                 0.0901

                     43                     44                     45
                      B                      A                      B
 Frequencies --    875.6190               877.7996               940.4570
 Red. masses --      1.6526                 1.6560                 6.3145
 Frc consts  --      0.7466                 0.7518                 3.2906
 IR Inten    --      2.0800                 3.1201                28.5528

                     46                     47                     48
                      A                      B                      A
 Frequencies --    944.4584               944.6009               965.6447
 Red. masses --      1.3022                 1.3046                 1.6430
 Frc consts  --      0.6844                 0.6859                 0.9026
 IR Inten    --      0.3756                 0.5523                 4.9263

                     49                     50                     51
                      B                      A                      B
 Frequencies --    966.6898               973.6020               992.4689
 Red. masses --      1.3850                 3.6525                 1.3211
 Frc consts  --      0.7626                 2.0399                 0.7667
 IR Inten    --      1.6128                47.8201                 1.2715

                     52                     53                     54
                      A                      B                      B
 Frequencies --    993.0362              1000.5632              1056.3124
 Red. masses --      1.3001                 4.4275                 2.2561
 Frc consts  --      0.7554                 2.6116                 1.4832
 IR Inten    --      0.0888                53.7850                 1.0690

                     55                     56                     57
                      A                      A                      B
 Frequencies --   1056.3326              1094.4944              1162.8268
 Red. masses --      2.2409                 3.2556                 1.7148
 Frc consts  --      1.4732                 2.2978                 1.3661
 IR Inten    --      0.3927                36.4071                 1.6203

                     58                     59                     60
                      A                      B                      A
 Frequencies --   1179.8654              1188.7828              1190.5968
 Red. masses --      1.4580                 1.2025                 1.2434
 Frc consts  --      1.1959                 1.0012                 1.0384
 IR Inten    --     21.0275                 8.0017                 0.2391

                     61                     62                     63
                      B                      A                      B
 Frequencies --   1198.0366              1201.6630              1217.5843
 Red. masses --      1.2680                 1.1529                 1.3049
 Frc consts  --      1.0723                 0.9808                 1.1398
 IR Inten    --      2.4582                 6.3670                79.2289

                     64                     65                     66
                      A                      B                      A
 Frequencies --   1246.1861              1246.5953              1260.5513
 Red. masses --      2.1418                 2.2775                 1.7596
 Frc consts  --      1.9597                 2.0853                 1.6474
 IR Inten    --      1.9209                 8.2238                 0.1048

                     67                     68                     69
                      B                      B                      A
 Frequencies --   1278.6036              1304.3784              1306.2616
 Red. masses --      2.2858                 2.0541                 2.3187
 Frc consts  --      2.2017                 2.0591                 2.3311
 IR Inten    --    110.9155                64.1250               125.4615

                     70                     71                     72
                      A                      B                      A
 Frequencies --   1322.8481              1380.2792              1383.1804
 Red. masses --      2.0082                 3.6084                 4.6040
 Frc consts  --      2.0705                 4.0504                 5.1897
 IR Inten    --     74.2674                71.1852                40.2458

                     73                     74                     75
                      B                      A                      B
 Frequencies --   1407.8975              1412.8538              1426.0277
 Red. masses --      5.7709                 7.0333                 2.4342
 Frc consts  --      6.7396                 8.2719                 2.9165
 IR Inten    --      1.2970                 0.6711                16.4270

                     76                     77                     78
                      A                      B                      A
 Frequencies --   1443.0510              1475.0401              1477.8421
 Red. masses --      2.3291                 2.2708                 2.3678
 Frc consts  --      2.8576                 2.9109                 3.0469
 IR Inten    --      0.2269                21.5893                16.5492

                     79                     80                     81
                      B                      A                      B
 Frequencies --   1513.1114              1520.9393              1555.3938
 Red. masses --      2.4460                 2.7420                 3.3479
 Frc consts  --      3.2995                 3.7372                 4.7720
 IR Inten    --      5.4479                13.7451                44.9377

                     82                     83                     84
                      A                      B                      A
 Frequencies --   1558.1483              1627.0149              1632.9917
 Red. masses --      3.5562                 7.0208                 6.9879
 Frc consts  --      5.0869                10.9502                10.9790
 IR Inten    --     40.0079                 8.1990                13.0655

                     85                     86                     87
                      B                      A                      B
 Frequencies --   1653.7825              1658.6618              1672.7135
 Red. masses --      5.3224                 5.4056                 6.0842
 Frc consts  --      8.5765                 8.7622                10.0299
 IR Inten    --     12.8686                 9.3053                42.6102

                     88                     89                     90
                      A                      B                      A
 Frequencies --   1673.8348              3161.3133              3161.4331
 Red. masses --      6.2405                 1.0878                 1.0877
 Frc consts  --     10.3013                 6.4050                 6.4051
 IR Inten    --     41.3327                12.7384                16.0888

                     91                     92                     93
                      B                      A                      B
 Frequencies --   3170.7111              3170.7272              3182.8448
 Red. masses --      1.0868                 1.0868                 1.0890
 Frc consts  --      6.4376                 6.4376                 6.5002
 IR Inten    --      7.6844                 0.0605                14.0714

                     94                     95                     96
                      A                      B                      A
 Frequencies --   3182.8664              3187.8280              3187.9087
 Red. masses --      1.0890                 1.0939                 1.0939
 Frc consts  --      6.5002                 6.5498                 6.5501
 IR Inten    --      1.0838                50.8694                 9.0025

                     97                     98                     99
                      B                      A                      B
 Frequencies --   3199.3728              3199.6049              3211.0078
 Red. masses --      1.0938                 1.0937                 1.0947
 Frc consts  --      6.5964                 6.5971                 6.6500
 IR Inten    --     55.4330                15.9155                16.9971

                    100                    101                    102
                      A                      B                      A
 Frequencies --   3211.1436              3764.3477              3764.4180
 Red. masses --      1.0945                 1.0663                 1.0664
 Frc consts  --      6.6497                 8.9028                 8.9032
 IR Inten    --     11.0650                62.0044                70.7338

 - Thermochemistry -
 -------------------
 Temperature   298.150 Kelvin.  Pressure   1.00000 Atm.
 Atom     1 has atomic number  6 and mass  12.00000

 Molecular mass:   286.09938 amu.
 Principal axes and moments of inertia in atomic units:
                           1         2         3
     Eigenvalues --  3979.983657977.890768536.55641
           X           -0.00375   0.00000   0.99999
           Y            0.99999   0.00000   0.00375
           Z            0.00000   1.00000   0.00000
 This molecule is an asymmetric top.
 Rotational symmetry number  2.
 Warning -- assumption of classical behavior for rotation
           may cause significant error
 Rotational temperatures (Kelvin)      0.02176     0.01086     0.01015
 Rotational constants (GHZ):           0.45345     0.22622     0.21141
 Zero-point vibrational energy     742788.3 (Joules/Mol)
                                  177.53066 (Kcal/Mol)
 Warning -- explicit consideration of  28 degrees of freedom as
           vibrations may cause significant error
 Vibrational temperatures:     21.74    77.51    79.08   154.63   156.07
          (Kelvin)            213.65   215.22   276.91   335.99   340.67
                              446.15   448.06   466.92   507.18   518.88
                              534.26   616.68   618.61   635.55   638.48
                              710.43   743.46   766.34   776.97   781.05
                              781.45   836.90   852.88   921.70   978.62
                              986.64   989.20  1050.56  1060.87  1087.61
                             1090.73  1128.57  1136.92  1158.82  1171.56
                             1173.99  1243.90  1259.82  1262.96  1353.11
                             1358.86  1359.07  1389.35  1390.85  1400.79
                             1427.94  1428.76  1439.59  1519.80  1519.83
                             1574.73  1673.05  1697.56  1710.39  1713.00
                             1723.71  1728.92  1751.83  1792.98  1793.57
                             1813.65  1839.62  1876.71  1879.42  1903.28
                             1985.91  1990.09  2025.65  2032.78  2051.73
                             2076.23  2122.25  2126.28  2177.03  2188.29
                             2237.86  2241.83  2340.91  2349.51  2379.42
                             2386.44  2406.66  2408.27  4548.42  4548.59
                             4561.94  4561.96  4579.40  4579.43  4586.57
                             4586.68  4603.18  4603.51  4619.92  4620.11
                             5416.05  5416.15

 Zero-point correction=                           0.282913 (Hartree/Particle)
 Thermal correction to Energy=                    0.299741
 Thermal correction to Enthalpy=                  0.300685
 Thermal correction to Gibbs Free Energy=         0.238553
 Sum of electronic and zero-point Energies=           -920.805149
 Sum of electronic and thermal Energies=              -920.788321
 Sum of electronic and thermal Enthalpies=            -920.787377
 Sum of electronic and thermal Free Energies=         -920.849509

                     E (Thermal)             CV                S
                      KCal/Mol        Cal/Mol-Kelvin    Cal/Mol-Kelvin
 Total                  188.090             69.305            130.768
 Electronic               0.000              0.000              0.000
 Translational            0.889              2.981             42.851
 Rotational               0.889              2.981             32.583
 Vibrational            186.313             63.343             55.334
 Vibration     1          0.593              1.986              7.191
 Vibration     2          0.596              1.976              4.670
 Vibration     3          0.596              1.976              4.630
 Vibration     4          0.606              1.943              3.314
 Vibration     5          0.606              1.942              3.296
 Vibration     6          0.618              1.904              2.691
 Vibration     7          0.618              1.903              2.677
 Vibration     8          0.634              1.850              2.204
 Vibration     9          0.654              1.790              1.852
 Vibration    10          0.656              1.784              1.827
 Vibration    11          0.699              1.654              1.362
 Vibration    12          0.700              1.652              1.355
 Vibration    13          0.709              1.626              1.287
 Vibration    14          0.729              1.570              1.155
 Vibration    15          0.735              1.553              1.119
 Vibration    16          0.743              1.531              1.074
 Vibration    17          0.790              1.408              0.863
 Vibration    18          0.791              1.405              0.859
 Vibration    19          0.801              1.379              0.821
 Vibration    20          0.803              1.375              0.815
 Vibration    21          0.849              1.264              0.674
 Vibration    22          0.872              1.213              0.618
 Vibration    23          0.888              1.178              0.581
 Vibration    24          0.895              1.162              0.565
 Vibration    25          0.898              1.155              0.559
 Vibration    26          0.898              1.155              0.559
 Vibration    27          0.938              1.071              0.482
 Vibration    28          0.950              1.047              0.462

 Optimization completed.
    -- Stationary point found.
 Normal termination of Gaussian 09 at Sat Sep 16 03:41:23 2023.
