 Gaussian 09, Revision D.01,
 Gaussian 09:  EM64W-G09RevD.01 13-Apr-2013

 --------------------------------------------------------------------
 # opt freq b3lyp/6-31+g(d) geom=connectivity empiricaldispersion=gd3
 --------------------------------------------------------------------

 -------------------
 Title Card Required
 -------------------
 Symbolic Z-matrix:
 Charge =  0 Multiplicity = 1

 SCF Done:  E(RB3LYP) =  -477.161464771     A.U. after   15 cycles
 SCF Done:  E(RB3LYP) =  -477.174021183     A.U. after   13 cycles
 SCF Done:  E(RB3LYP) =  -477.174643746     A.U. after   13 cycles
 SCF Done:  E(RB3LYP) =  -477.174677313     A.U. after   11 cycles
 Optimization completed.
    -- Stationary point found.
 Normal termination of Gaussian 09 at Sat Sep 16 04:00:52 2023.

 ---------------------------------------------------------------------
 #N Geom=AllCheck Guess=TCheck SCRF=Check GenChk RB3LYP/6-31+G(d) Freq
 ---------------------------------------------------------------------

 Structure from the checkpoint file:  "D:\Reaction optimization project\source code\DFT\opti\ligand\input\molecule.chk"
 -------------------
 Title Card Required
 -------------------
 Charge =  0 Multiplicity = 1

                         Standard orientation:
 ---------------------------------------------------------------------
 Center     Atomic      Atomic             Coordinates (Angstroms)
 Number     Number       Type             X           Y           Z
 ---------------------------------------------------------------------
      1          6           0        2.249115   -1.108649    0.000031
      2          6           0        0.052902   -0.440042    0.000000
      3          6           0        0.412096    0.947354   -0.000031
      4          6           0        1.799088    1.252148   -0.000022
      5          6           0        2.720169    0.230239    0.000039
      6          1           0        2.962424   -1.932381    0.000045
      7          6           0       -1.338805   -0.780882    0.000022
      8          6           0       -0.595216    1.949169   -0.000021
      9          1           0        2.113654    2.293627    0.000015
     10          1           0        3.788158    0.429201    0.000068
     11          6           0       -1.922671    1.582232    0.000000
     12          6           0       -2.297219    0.217272    0.000033
     13          1           0       -0.304126    2.996663   -0.000025
     14          1           0       -2.700489    2.341202    0.000055
     15          1           0       -3.352469   -0.050166    0.000023
     16          8           0       -1.648483   -2.107376   -0.000069
     17          1           0       -2.612962   -2.212132    0.000380
     18          7           0        0.973846   -1.442864   -0.000044
 ---------------------------------------------------------------------

 SCF Done:  E(RB3LYP) =  -477.174677313     A.U. after    3 cycles

 The electronic state is 1-A.
 Alpha  occ. eigenvalues --  -19.19447 -14.33764 -10.26547 -10.23405 -10.23070
 Alpha  occ. eigenvalues --  -10.21693 -10.21557 -10.20852 -10.20805 -10.20442
 Alpha  occ. eigenvalues --  -10.19989  -1.07444  -0.94886  -0.85596  -0.81233
 Alpha  occ. eigenvalues --   -0.76229  -0.74423  -0.65701  -0.64419  -0.61722
 Alpha  occ. eigenvalues --   -0.56101  -0.53710  -0.51786  -0.49405  -0.46674
 Alpha  occ. eigenvalues --   -0.44887  -0.43362  -0.42580  -0.41156  -0.39975
 Alpha  occ. eigenvalues --   -0.38659  -0.37901  -0.35579  -0.34135  -0.29837
 Alpha  occ. eigenvalues --   -0.26092  -0.26009  -0.22253
 Alpha virt. eigenvalues --   -0.05930  -0.02933  -0.00655   0.00577   0.01084
 Alpha virt. eigenvalues --    0.01374   0.02764   0.03784   0.04817   0.04994
 Alpha virt. eigenvalues --    0.05705   0.06807   0.06867   0.07819   0.08853

 Mulliken charges:
               1
     1  C    0.071212
     2  C   -1.970878
     3  C    1.592279
     4  C   -0.304067
     5  C   -0.165398
     6  H    0.179580
     7  C    0.359845
     8  C   -0.138853
     9  H    0.191199
    10  H    0.187928
    11  C   -0.176706
    12  C   -0.031310
    13  H    0.181606
    14  H    0.182728
    15  H    0.165384
    16  O   -0.646114
    17  H    0.491556
    18  N   -0.169992
 Sum of Mulliken charges =   0.00000

 Dipole moment (field-independent basis, Debye):
    X=             -0.9076    Y=              2.2754    Z=              0.0009  Tot=              2.4497
 Quadrupole moment (field-independent basis, Debye-Ang):
   XX=            -46.6486   YY=            -64.0722   ZZ=            -68.1006
   XY=              3.8955   XZ=             -0.0020   YZ=             -0.0020

  Exact polarizability: 163.629  -7.330 126.811   0.000   0.001  59.716
 Approx polarizability: 268.591 -13.904 223.521   0.000  -0.001  89.143

                      1                      2                      3
                      A                      A                      A
 Frequencies --    134.6633               174.6218               262.6576
 Red. masses --      5.1347                 4.1574                 3.7500
 Frc consts  --      0.0549                 0.0747                 0.1524
 IR Inten    --      1.1955                 8.4344                 6.1551

                      4                      5                      6
                      A                      A                      A
 Frequencies --    289.4931               390.2533               434.5710
 Red. masses --      5.9502                 1.1510                 3.6851
 Frc consts  --      0.2938                 0.1033                 0.4100
 IR Inten    --      9.3398                95.3992                 2.8270

                      7                      8                      9
                      A                      A                      A
 Frequencies --    472.9631               473.4207               489.5658
 Red. masses --      4.7575                 3.2477                 7.9408
 Frc consts  --      0.6270                 0.4289                 1.1213
 IR Inten    --      0.4826                 0.0092                 0.3192

                     10                     11                     12
                      A                      A                      A
 Frequencies --    544.4893               583.6535               589.3863
 Red. masses --      5.8159                 6.9246                 3.7752
 Frc consts  --      1.0159                 1.3898                 0.7727
 IR Inten    --      5.5970                 3.0824                 0.7165

                     13                     14                     15
                      A                      A                      A
 Frequencies --    634.5047               715.2751               755.7858
 Red. masses --      3.4111                 6.3994                 1.5298
 Frc consts  --      0.8091                 1.9290                 0.5148
 IR Inten    --      0.3059                 6.1167                35.1633

                     16                     17                     18
                      A                      A                      A
 Frequencies --    782.2411               817.9147               818.9910
 Red. masses --      2.9234                 5.5990                 1.4220
 Frc consts  --      1.0539                 2.2069                 0.5620
 IR Inten    --      1.4698                10.6913                85.5941

                     19                     20                     21
                      A                      A                      A
 Frequencies --    872.7564               895.5756               963.1706
 Red. masses --      1.4646                 5.9067                 1.3815
 Frc consts  --      0.6573                 2.7912                 0.7551
 IR Inten    --      0.2788                 6.0014                 0.1083

                     22                     23                     24
                      A                      A                      A
 Frequencies --    967.5066               998.1012              1054.2793
 Red. masses --      1.2809                 1.3507                 2.9991
 Frc consts  --      0.7065                 0.7928                 1.9640
 IR Inten    --      0.4683                 0.9726                10.7837

                     25                     26                     27
                      A                      A                      A
 Frequencies --   1078.3003              1112.5458              1171.0899
 Red. masses --      2.6179                 2.3281                 1.2844
 Frc consts  --      1.7934                 1.6978                 1.0378
 IR Inten    --     75.9890                34.2298                 1.0364

                     28                     29                     30
                      A                      A                      A
 Frequencies --   1196.0253              1225.3543              1256.2733
 Red. masses --      1.3167                 1.5969                 1.8539
 Frc consts  --      1.1097                 1.4127                 1.7239
 IR Inten    --     26.4809                15.1392                 4.6447

                     31                     32                     33
                      A                      A                      A
 Frequencies --   1290.9432              1308.7213              1379.3389
 Red. masses --      1.6911                 2.5795                 3.5738
 Frc consts  --      1.6605                 2.6030                 4.0061
 IR Inten    --     37.1645                54.4840                71.1216

                     34                     35                     36
                      A                      A                      A
 Frequencies --   1402.2821              1441.3674              1475.2733
 Red. masses --      5.1197                 1.8367                 2.0552
 Frc consts  --      5.9315                 2.2482                 2.6354
 IR Inten    --     50.9472                 0.9193                35.8111

                     37                     38                     39
                      A                      A                      A
 Frequencies --   1515.8215              1556.6972              1613.8493
 Red. masses --      2.7536                 3.6862                 6.8279
 Frc consts  --      3.7278                 5.2630                10.4776
 IR Inten    --     16.7438                55.0730                40.1031

                     40                     41                     42
                      A                      A                      A
 Frequencies --   1648.2942              1667.3035              3160.3921
 Red. masses --      5.2980                 6.2623                 1.0893
 Frc consts  --      8.4808                10.2568                 6.4102
 IR Inten    --     14.7219                11.5535                25.6252

                     43                     44                     45
                      A                      A                      A
 Frequencies --   3166.1866              3179.7307              3182.8742
 Red. masses --      1.0888                 1.0891                 1.0885
 Frc consts  --      6.4309                 6.4881                 6.4971
 IR Inten    --     18.3698                 4.7744                14.7943

                     46                     47                     48
                      A                      A                      A
 Frequencies --   3203.1274              3207.3172              3747.5516
 Red. masses --      1.0961                 1.0962                 1.0662
 Frc consts  --      6.6260                 6.6436                 8.8220
 IR Inten    --     25.5999                22.2397                54.8949

 - Thermochemistry -
 -------------------
 Temperature   298.150 Kelvin.  Pressure   1.00000 Atm.
 Atom     1 has atomic number  6 and mass  12.00000

 Molecular mass:   145.05276 amu.
 Principal axes and moments of inertia in atomic units:
                           1         2         3
     Eigenvalues --   927.237841550.060122477.29796
           X            1.00000  -0.00294   0.00000
           Y            0.00294   1.00000   0.00000
           Z            0.00000   0.00000   1.00000
 This molecule is an asymmetric top.
 Rotational symmetry number  1.
 Warning -- assumption of classical behavior for rotation
           may cause significant error
 Rotational temperatures (Kelvin)      0.09341     0.05588     0.03496
 Rotational constants (GHZ):           1.94636     1.16430     0.72851
 Zero-point vibrational energy     366670.4 (Joules/Mol)
                                   87.63632 (Kcal/Mol)
 Warning -- explicit consideration of  12 degrees of freedom as
           vibrations may cause significant error
 Vibrational temperatures:    193.75   251.24   377.91   416.52   561.49
          (Kelvin)            625.25   680.49   681.15   704.38   783.40
                              839.75   847.99   912.91  1029.12  1087.41
                             1125.47  1176.80  1178.34  1255.70  1288.53
                             1385.79  1392.02  1436.04  1516.87  1551.43
                             1600.70  1684.94  1720.81  1763.01  1807.49
                             1857.38  1882.96  1984.56  2017.57  2073.80
                             2122.59  2180.93  2239.74  2321.97  2371.52
                             2398.87  4547.09  4555.43  4574.92  4579.44
                             4608.58  4614.61  5391.88

 Zero-point correction=                           0.139657 (Hartree/Particle)
 Thermal correction to Energy=                    0.147528
 Thermal correction to Enthalpy=                  0.148473
 Thermal correction to Gibbs Free Energy=         0.107127
 Sum of electronic and zero-point Energies=           -477.035020
 Sum of electronic and thermal Energies=              -477.027149
 Sum of electronic and thermal Enthalpies=            -477.026205
 Sum of electronic and thermal Free Energies=         -477.067550

                     E (Thermal)             CV                S
                      KCal/Mol        Cal/Mol-Kelvin    Cal/Mol-Kelvin
 Total                   92.575             32.543             87.019
 Electronic               0.000              0.000              0.000
 Translational            0.889              2.981             40.827
 Rotational               0.889              2.981             29.655
 Vibrational             90.798             26.582             16.537
 Vibration     1          0.613              1.919              2.878
 Vibration     2          0.627              1.874              2.385
 Vibration     3          0.670              1.741              1.644
 Vibration     4          0.686              1.693              1.477
 Vibration     5          0.758              1.491              0.999
 Vibration     6          0.795              1.395              0.844
 Vibration     7          0.830              1.310              0.729
 Vibration     8          0.830              1.309              0.728
 Vibration     9          0.845              1.273              0.685
 Vibration    10          0.900              1.152              0.556
 Vibration    11          0.941              1.067              0.479
 Vibration    12          0.947              1.054              0.468

 Optimization completed.
    -- Stationary point found.
 Normal termination of Gaussian 09 at Sat Sep 16 04:05:34 2023.
