 Gaussian 09, Revision D.01,
 Gaussian 09:  EM64W-G09RevD.01 13-Apr-2013

 --------------------------------------------------------------------
 # opt freq b3lyp/6-31+g(d) geom=connectivity empiricaldispersion=gd3
 --------------------------------------------------------------------

 -------------------
 Title Card Required
 -------------------
 Symbolic Z-matrix:
 Charge =  0 Multiplicity = 1

 SCF Done:  E(RB3LYP) =  -495.385682654     A.U. after   15 cycles
 SCF Done:  E(RB3LYP) =  -495.405929812     A.U. after   13 cycles
 SCF Done:  E(RB3LYP) =  -495.406162234     A.U. after   12 cycles
 SCF Done:  E(RB3LYP) =  -495.406197263     A.U. after   10 cycles
 SCF Done:  E(RB3LYP) =  -495.406201361     A.U. after   10 cycles
 SCF Done:  E(RB3LYP) =  -495.406209285     A.U. after   10 cycles
 SCF Done:  E(RB3LYP) =  -495.403722751     A.U. after   15 cycles
 SCF Done:  E(RB3LYP) =  -495.406220750     A.U. after   10 cycles
 SCF Done:  E(RB3LYP) =  -495.407205513     A.U. after   15 cycles
 SCF Done:  E(RB3LYP) =  -495.407964521     A.U. after   16 cycles
 SCF Done:  E(RB3LYP) =  -495.408357967     A.U. after   13 cycles
 SCF Done:  E(RB3LYP) =  -495.408368701     A.U. after   11 cycles
 SCF Done:  E(RB3LYP) =  -495.408372972     A.U. after   10 cycles
 SCF Done:  E(RB3LYP) =  -495.408373127     A.U. after   10 cycles
 Optimization completed.
    -- Stationary point found.
 Normal termination of Gaussian 09 at Thu Aug 24 15:53:06 2023.

 ---------------------------------------------------------------------
 #N Geom=AllCheck Guess=TCheck SCRF=Check GenChk RB3LYP/6-31+G(d) Freq
 ---------------------------------------------------------------------

 Structure from the checkpoint file:  "D:\Reaction optimization project\source code\DFT\opti\ligand\input\molecule_2.chk"
 -------------------
 Title Card Required
 -------------------
 Charge =  0 Multiplicity = 1

                         Standard orientation:
 ---------------------------------------------------------------------
 Center     Atomic      Atomic             Coordinates (Angstroms)
 Number     Number       Type             X           Y           Z
 ---------------------------------------------------------------------
      1          6           0       -0.746755   -0.003145   -0.000415
      2          6           0        0.746755   -0.003146    0.000413
      3          7           0        1.359639   -1.124715   -0.415568
      4          6           0        2.695670   -1.141901   -0.424713
      5          6           0        3.492857   -0.064231   -0.024686
      6          6           0        2.854534    1.097156    0.410767
      7          6           0        1.460528    1.130702    0.423109
      8          6           0       -1.460529    1.130701   -0.423110
      9          6           0       -2.854535    1.097155   -0.410767
     10          6           0       -3.492857   -0.064231    0.024687
     11          6           0       -2.695667   -1.141902    0.424712
     12          7           0       -1.359639   -1.124715    0.415568
     13          1           0        3.154292   -2.066237   -0.772656
     14          1           0        4.576170   -0.140415   -0.052407
     15          1           0        3.429014    1.958071    0.743224
     16          1           0        0.931563    2.010103    0.778698
     17          1           0       -0.931565    2.010105   -0.778695
     18          1           0       -3.429014    1.958073   -0.743220
     19          1           0       -4.576170   -0.140416    0.052413
     20          1           0       -3.154291   -2.066234    0.772664
 ---------------------------------------------------------------------

 SCF Done:  E(RB3LYP) =  -495.408373127     A.U. after    1 cycles

 The electronic state is 1-A.
 Alpha  occ. eigenvalues --  -14.33818 -14.33818 -10.23955 -10.23927 -10.23062
 Alpha  occ. eigenvalues --  -10.23062 -10.21924 -10.21924 -10.21051 -10.21051
 Alpha  occ. eigenvalues --  -10.20904 -10.20904  -0.96030  -0.93956  -0.81492
 Alpha  occ. eigenvalues --   -0.80976  -0.79860  -0.74917  -0.66113  -0.64945
 Alpha  occ. eigenvalues --   -0.62694  -0.60776  -0.54436  -0.51260  -0.50141
 Alpha  occ. eigenvalues --   -0.48730  -0.47800  -0.45530  -0.43712  -0.42157
 Alpha  occ. eigenvalues --   -0.41413  -0.40660  -0.39306  -0.38633  -0.36743
 Alpha  occ. eigenvalues --   -0.30083  -0.29392  -0.28534  -0.26267  -0.25825
 Alpha  occ. eigenvalues --   -0.25134
 Alpha virt. eigenvalues --   -0.05498  -0.03335  -0.03330  -0.00368   0.00187
 Alpha virt. eigenvalues --    0.00610   0.02046   0.02975   0.03418   0.04320
 Alpha virt. eigenvalues --    0.05059   0.05274   0.05513   0.06509   0.06791

 Mulliken charges:
               1
     1  C   -0.148513
     2  C   -0.148513
     3  N   -0.108185
     4  C   -0.153417
     5  C    0.017159
     6  C   -0.494424
     7  C    0.140760
     8  C    0.140757
     9  C   -0.494423
    10  C    0.017158
    11  C   -0.153414
    12  N   -0.108184
    13  H    0.180710
    14  H    0.187351
    15  H    0.189529
    16  H    0.189029
    17  H    0.189029
    18  H    0.189529
    19  H    0.187351
    20  H    0.180710
 Sum of Mulliken charges =   0.00000

 Dipole moment (field-independent basis, Debye):
    X=              0.0000    Y=              3.2197    Z=              0.0000  Tot=              3.2197
 Quadrupole moment (field-independent basis, Debye-Ang):
   XX=            -51.3613   YY=            -68.2800   ZZ=            -73.3784
   XY=              0.0000   XZ=              0.8949   YZ=              0.0000

  Exact polarizability: 191.653   0.000 123.246  -0.621   0.000  75.784
 Approx polarizability: 273.098   0.000 217.077  -0.773   0.000 117.554

                      1                      2                      3
                      A                      A                      A
 Frequencies --     57.2065                90.7956               125.1415
 Red. masses --      4.3770                 4.6630                 4.5884
 Frc consts  --      0.0084                 0.0226                 0.0423
 IR Inten    --      0.0719                 3.7802                 2.4835

                      4                      5                      6
                      A                      A                      A
 Frequencies --    257.5701               321.6496               365.9341
 Red. masses --      4.5886                 7.2900                 4.0311
 Frc consts  --      0.1794                 0.4444                 0.3180
 IR Inten    --      0.2608                 0.0164                 1.3915

                      7                      8                      9
                      A                      A                      A
 Frequencies --    414.2147               417.7596               508.1515
 Red. masses --      3.6486                 3.6235                 3.7114
 Frc consts  --      0.3688                 0.3726                 0.5646
 IR Inten    --      5.1205                 0.5188                 2.7017

                     10                     11                     12
                      A                      A                      A
 Frequencies --    565.8328               622.8783               638.2182
 Red. masses --      2.7475                 7.4208                 7.1348
 Frc consts  --      0.5183                 1.6963                 1.7123
 IR Inten    --      1.3300                 5.0671                 4.6356

                     13                     14                     15
                      A                      A                      A
 Frequencies --    668.3062               757.6779               758.8540
 Red. masses --      7.0524                 1.5704                 2.0840
 Frc consts  --      1.8558                 0.5311                 0.7071
 IR Inten    --     10.3177                 8.1164                22.8136

                     16                     17                     18
                      A                      A                      A
 Frequencies --    772.1302               783.0555               828.4208
 Red. masses --      1.8355                 5.9430                 2.7934
 Frc consts  --      0.6448                 2.1470                 1.1295
 IR Inten    --     79.8334                 0.0641                 5.8331

                     19                     20                     21
                      A                      A                      A
 Frequencies --    906.0822               912.1262               978.5097
 Red. masses --      1.2979                 1.3643                 1.4042
 Frc consts  --      0.6278                 0.6687                 0.7921
 IR Inten    --      0.2416                 0.3687                 0.2820

                     22                     23                     24
                      A                      A                      A
 Frequencies --    981.9376              1006.4322              1007.0716
 Red. masses --      1.4348                 3.5915                 7.1549
 Frc consts  --      0.8151                 2.1434                 4.2754
 IR Inten    --      0.2486                 3.1544                 2.2214

                     25                     26                     27
                      A                      A                      A
 Frequencies --   1009.6112              1010.3472              1055.3815
 Red. masses --      1.3090                 1.6014                 4.5619
 Frc consts  --      0.7861                 0.9631                 2.9938
 IR Inten    --      0.0424                 1.2176                 7.8631

                     28                     29                     30
                      A                      A                      A
 Frequencies --   1075.7137              1106.2164              1122.0312
 Red. masses --      2.3789                 1.9719                 1.6661
 Frc consts  --      1.6219                 1.4217                 1.2358
 IR Inten    --      5.4735                 1.8411                 2.6702

                     31                     32                     33
                      A                      A                      A
 Frequencies --   1134.2476              1190.0359              1196.2874
 Red. masses --      1.6431                 1.1531                 1.1559
 Frc consts  --      1.2455                 0.9621                 0.9747
 IR Inten    --      7.8097                 5.3044                 2.5569

                     34                     35                     36
                      A                      A                      A
 Frequencies --   1295.6614              1306.4230              1311.2662
 Red. masses --      2.7247                 6.4120                 2.5856
 Frc consts  --      2.6950                 6.4478                 2.6194
 IR Inten    --      0.0861                 2.3924                 0.0170

                     37                     38                     39
                      A                      A                      A
 Frequencies --   1339.4037              1343.6222              1461.0654
 Red. masses --      1.4585                 2.5647                 1.8823
 Frc consts  --      1.5416                 2.7280                 2.3675
 IR Inten    --      3.7642                 0.0183                 4.7889

                     40                     41                     42
                      A                      A                      A
 Frequencies --   1469.6964              1508.6076              1522.0551
 Red. masses --      2.1293                 2.0996                 2.6832
 Frc consts  --      2.7098                 2.8154                 3.6624
 IR Inten    --     49.8098                26.8710                 6.0180

                     43                     44                     45
                      A                      A                      A
 Frequencies --   1614.0891              1624.2749              1635.9543
 Red. masses --      4.9409                 5.7507                 5.5103
 Frc consts  --      7.5842                 8.9391                 8.6889
 IR Inten    --     31.6467                 5.2925                84.0994

                     46                     47                     48
                      A                      A                      A
 Frequencies --   1637.0425              3168.6135              3168.9478
 Red. masses --      5.2692                 1.0890                 1.0891
 Frc consts  --      8.3199                 6.4417                 6.4436
 IR Inten    --      3.0490                25.8018                22.4628

                     49                     50                     51
                      A                      A                      A
 Frequencies --   3186.3128              3187.6558              3202.3522
 Red. masses --      1.0879                 1.0882                 1.0925
 Frc consts  --      6.5077                 6.5150                 6.6011
 IR Inten    --      3.8889                12.7975                26.6873

                     52                     53                     54
                      A                      A                      A
 Frequencies --   3205.6457              3211.6701              3213.1402
 Red. masses --      1.0921                 1.0980                 1.0974
 Frc consts  --      6.6125                 6.6731                 6.6757
 IR Inten    --     10.8674                31.1923                 6.7286

 - Thermochemistry -
 -------------------
 Temperature   298.150 Kelvin.  Pressure   1.00000 Atm.
 Atom     1 has atomic number  6 and mass  12.00000

 Molecular mass:   156.06875 amu.
 Principal axes and moments of inertia in atomic units:
                           1         2         3
     Eigenvalues --   613.876663170.742293634.13988
           X            1.00000   0.00000   0.00140
           Y            0.00000   1.00000   0.00000
           Z           -0.00140   0.00000   1.00000
 This molecule is an asymmetric top.
 Rotational symmetry number  1.
 Warning -- assumption of classical behavior for rotation
           may cause significant error
 Rotational temperatures (Kelvin)      0.14109     0.02732     0.02383
 Rotational constants (GHZ):           2.93991     0.56919     0.49661
 Zero-point vibrational energy     414262.8 (Joules/Mol)
                                   99.01118 (Kcal/Mol)
 Warning -- explicit consideration of  10 degrees of freedom as
           vibrations may cause significant error
 Vibrational temperatures:     82.31   130.63   180.05   370.59   462.78
          (Kelvin)            526.50   595.96   601.06   731.12   814.11
                              896.18   918.25   961.54  1090.13  1091.82
                             1110.92  1126.64  1191.91  1303.65  1312.34
                             1407.86  1412.79  1448.03  1448.95  1452.60
                             1453.66  1518.46  1547.71  1591.60  1614.35
                             1631.93  1712.19  1721.19  1864.17  1879.65
                             1886.62  1927.10  1933.17  2102.14  2114.56
                             2170.55  2189.90  2322.31  2336.97  2353.77
                             2355.34  4558.92  4559.40  4584.39  4586.32
                             4607.46  4612.20  4620.87  4622.99

 Zero-point correction=                           0.157784 (Hartree/Particle)
 Thermal correction to Energy=                    0.166485
 Thermal correction to Enthalpy=                  0.167429
 Thermal correction to Gibbs Free Energy=         0.123079
 Sum of electronic and zero-point Energies=           -495.250589
 Sum of electronic and thermal Energies=              -495.241888
 Sum of electronic and thermal Enthalpies=            -495.240944
 Sum of electronic and thermal Free Energies=         -495.285295

                     E (Thermal)             CV                S
                      KCal/Mol        Cal/Mol-Kelvin    Cal/Mol-Kelvin
 Total                  104.471             34.479             93.344
 Electronic               0.000              0.000              0.000
 Translational            0.889              2.981             41.045
 Rotational               0.889              2.981             30.337
 Vibrational            102.694             28.517             21.962
 Vibration     1          0.596              1.975              4.551
 Vibration     2          0.602              1.956              3.643
 Vibration     3          0.610              1.928              3.019
 Vibration     4          0.667              1.750              1.678
 Vibration     5          0.707              1.632              1.302
 Vibration     6          0.739              1.542              1.097
 Vibration     7          0.778              1.439              0.912
 Vibration     8          0.781              1.432              0.900
 Vibration     9          0.863              1.232              0.638
 Vibration    10          0.922              1.105              0.512

 Optimization completed.
    -- Stationary point found.
 Normal termination of Gaussian 09 at Thu Aug 24 15:57:58 2023.
