 Gaussian 09, Revision D.01,
 Gaussian 09:  EM64W-G09RevD.01 13-Apr-2013

 ----------------------------------------------------------------------
 # opt freq b3lyp/6-31+g(d) geom=connectivity empiricaldispersion=gd3 s
 cf=maxcycle=1000
 ----------------------------------------------------------------------

 -------------------
 Title Card Required
 -------------------
 Symbolic Z-matrix:
 Charge =  0 Multiplicity = 1

 SCF Done:  E(RB3LYP) =  -230.260158355     A.U. after    9 cycles
 SCF Done:  E(RB3LYP) =  -230.260217036     A.U. after    8 cycles
 SCF Done:  E(RB3LYP) =  -230.260225070     A.U. after    7 cycles
 Optimization completed.
    -- Stationary point found.
 Normal termination of Gaussian 09 at Sat Sep 16 02:08:27 2023.

 ---------------------------------------------------------------------
 #N Geom=AllCheck Guess=TCheck SCRF=Check GenChk RB3LYP/6-31+G(d) Freq
 ---------------------------------------------------------------------

 Structure from the checkpoint file:  "D:\PG\project pg\new opti with disp\Cu ligand\Lh.chk"
 -------------------
 Title Card Required
 -------------------
 Charge =  0 Multiplicity = 1

                         Standard orientation:
 ---------------------------------------------------------------------
 Center     Atomic      Atomic             Coordinates (Angstroms)
 Number     Number       Type             X           Y           Z
 ---------------------------------------------------------------------
      1          6           0       -0.237693    0.721947    0.000101
      2          1           0        0.152350    1.232794    0.892321
      3          1           0        0.152056    1.232948   -0.892158
      4          6           0        0.237693   -0.721947   -0.000101
      5          1           0       -0.152350   -1.232794   -0.892321
      6          1           0       -0.152056   -1.232948    0.892158
      7          8           0        1.667271   -0.684371   -0.000333
      8          1           0        2.009342   -1.590281   -0.000463
      9          8           0       -1.667271    0.684371    0.000333
     10          1           0       -2.009342    1.590281    0.000463
 ---------------------------------------------------------------------

 SCF Done:  E(RB3LYP) =  -230.260225070     A.U. after    1 cycles

 The electronic state is 1-AG.
 Alpha  occ. eigenvalues --  -19.16434 -19.16434 -10.23888 -10.23864  -1.03519
 Alpha  occ. eigenvalues --   -1.02464  -0.74754  -0.61544  -0.54614  -0.49090
 Alpha  occ. eigenvalues --   -0.48892  -0.42245  -0.40426  -0.36620  -0.33553
 Alpha  occ. eigenvalues --   -0.28509  -0.28360
 Alpha virt. eigenvalues --   -0.00567   0.00230   0.03638   0.04733   0.06425
 Alpha virt. eigenvalues --    0.07326   0.07851   0.13025   0.14891   0.16025
 Alpha virt. eigenvalues --    0.16313   0.18371   0.19923   0.20663   0.21056

 Mulliken charges:
               1
     1  C   -0.164389
     2  H    0.189487
     3  H    0.189486
     4  C   -0.164389
     5  H    0.189487
     6  H    0.189486
     7  O   -0.682685
     8  H    0.468101
     9  O   -0.682685
    10  H    0.468101
 Sum of Mulliken charges =   0.00000

 Dipole moment (field-independent basis, Debye):
    X=              0.0000    Y=              0.0000    Z=              0.0000  Tot=              0.0000
 Quadrupole moment (field-independent basis, Debye-Ang):
   XX=            -28.9419   YY=            -17.4807   ZZ=            -26.0419
   XY=             -6.0315   XZ=              0.0000   YZ=              0.0017

  Exact polarizability:  37.201  -1.985  34.071  -0.001   0.001  30.068
 Approx polarizability:  45.021  -0.035  42.075  -0.001   0.000  39.063

                      1                      2                      3
                     AU                     AG                     AU
 Frequencies --    124.6569               237.2335               250.9735
 Red. masses --      3.4212                 1.1167                 1.0381
 Frc consts  --      0.0313                 0.0370                 0.0385
 IR Inten    --     35.6202                 0.0000               280.6234

                      4                      5                      6
                     AU                     AG                     AU
 Frequencies --    300.4389               478.9484               847.2129
 Red. masses --      3.3167                 6.8962                 1.0970
 Frc consts  --      0.1764                 0.9320                 0.4639
 IR Inten    --     23.6174                 0.0000                 2.3100

                      7                      8                      9
                     AG                     AU                     AG
 Frequencies --    987.4781              1059.2456              1073.4626
 Red. masses --      2.1825                 9.0257                 4.4386
 Frc consts  --      1.2539                 5.9665                 3.0135
 IR Inten    --      0.0000               229.8623                 0.0000

                     10                     11                     12
                     AG                     AU                     AU
 Frequencies --   1161.9290              1195.1300              1232.3122
 Red. masses --      1.5370                 1.0399                 1.1267
 Frc consts  --      1.2226                 0.8751                 1.0081
 IR Inten    --      0.0000                99.7853                 1.0947

                     13                     14                     15
                     AG                     AG                     AU
 Frequencies --   1293.6948              1314.1024              1408.3725
 Red. masses --      1.2704                 1.1013                 1.3297
 Frc consts  --      1.2527                 1.1205                 1.5539
 IR Inten    --      0.0000                 0.0000                 5.7574

                     16                     17                     18
                     AG                     AG                     AU
 Frequencies --   1487.8760              1541.3170              1547.7955
 Red. masses --      1.5748                 1.0862                 1.0885
 Frc consts  --      2.0540                 1.5204                 1.5363
 IR Inten    --      0.0000                 0.0000                 6.8617

                     19                     20                     21
                     AG                     AU                     AG
 Frequencies --   3013.7113              3018.2837              3041.4623
 Red. masses --      1.0550                 1.0544                 1.1073
 Frc consts  --      5.6454                 5.6593                 6.0348
 IR Inten    --      0.0000               113.2835                 0.0000

                     22                     23                     24
                     AU                     AG                     AU
 Frequencies --   3069.9491              3774.0202              3774.5254
 Red. masses --      1.1125                 1.0670                 1.0669
 Frc consts  --      6.1772                 8.9538                 8.9558
 IR Inten    --     97.1032                 0.0000                61.8654

 - Thermochemistry -
 -------------------
 Temperature   298.150 Kelvin.  Pressure   1.00000 Atm.
 Atom     1 has atomic number  6 and mass  12.00000

 Molecular mass:    62.03678 amu.
 Principal axes and moments of inertia in atomic units:
                           1         2         3
     Eigenvalues --    59.65917 453.31714 490.05517
           X            0.87819   0.47831   0.00016
           Y           -0.47831   0.87819  -0.00009
           Z           -0.00019   0.00000   1.00000
 This molecule is an asymmetric top.
 Rotational symmetry number  1.
 Rotational temperatures (Kelvin)      1.45181     0.19107     0.17674
 Rotational constants (GHZ):          30.25086     3.98119     3.68273
 Zero-point vibrational energy     222709.6 (Joules/Mol)
                                   53.22886 (Kcal/Mol)
 Warning -- explicit consideration of   5 degrees of freedom as
           vibrations may cause significant error
 Vibrational temperatures:    179.35   341.33   361.09   432.26   689.10
          (Kelvin)           1218.95  1420.76  1524.02  1544.47  1671.75
                             1719.52  1773.02  1861.34  1890.70  2026.33
                             2140.72  2217.61  2226.93  4336.05  4342.63
                             4375.98  4416.97  5429.97  5430.69

 Zero-point correction=                           0.084826 (Hartree/Particle)
 Thermal correction to Energy=                    0.090252
 Thermal correction to Enthalpy=                  0.091196
 Thermal correction to Gibbs Free Energy=         0.057111
 Sum of electronic and zero-point Energies=           -230.175399
 Sum of electronic and thermal Energies=              -230.169974
 Sum of electronic and thermal Enthalpies=            -230.169029
 Sum of electronic and thermal Free Energies=         -230.203114

                     E (Thermal)             CV                S
                      KCal/Mol        Cal/Mol-Kelvin    Cal/Mol-Kelvin
 Total                   56.634             17.218             71.738
 Electronic               0.000              0.000              0.000
 Translational            0.889              2.981             38.295
 Rotational               0.889              2.981             24.098
 Vibrational             54.856             11.256              9.345
 Vibration     1          0.610              1.928              3.027
 Vibration     2          0.656              1.784              1.824
 Vibration     3          0.663              1.761              1.724
 Vibration     4          0.693              1.673              1.414
 Vibration     5          0.835              1.297              0.713

 Optimization completed.
    -- Stationary point found.
 Normal termination of Gaussian 09 at Sat Sep 16 02:08:41 2023.
