 Gaussian 09, Revision D.01,
 Gaussian 09:  EM64W-G09RevD.01 13-Apr-2013

 --------------------------------------------------------------------
 # opt freq b3lyp/6-31+g(d) geom=connectivity empiricaldispersion=gd3
 --------------------------------------------------------------------

 -------------------
 Title Card Required
 -------------------
 Symbolic Z-matrix:
 Charge =  0 Multiplicity = 1

 SCF Done:  E(RB3LYP) =  -436.851981681     A.U. after   14 cycles
 SCF Done:  E(RB3LYP) =  -436.864815852     A.U. after   14 cycles
 SCF Done:  E(RB3LYP) =  -436.863936126     A.U. after   15 cycles
 SCF Done:  E(RB3LYP) =  -436.865683848     A.U. after   12 cycles
 SCF Done:  E(RB3LYP) =  -436.867361470     A.U. after   14 cycles
 SCF Done:  E(RB3LYP) =  -436.868427522     A.U. after   14 cycles
 SCF Done:  E(RB3LYP) =  -436.868674527     A.U. after   12 cycles
 SCF Done:  E(RB3LYP) =  -436.868675780     A.U. after   12 cycles
 SCF Done:  E(RB3LYP) =  -436.868708157     A.U. after   12 cycles
 SCF Done:  E(RB3LYP) =  -436.868709086     A.U. after   10 cycles
 Optimization completed.
    -- Stationary point found.
 Normal termination of Gaussian 09 at Sat Sep 16 04:09:07 2023.

 ---------------------------------------------------------------------
 #N Geom=AllCheck Guess=TCheck SCRF=Check GenChk RB3LYP/6-31+G(d) Freq
 ---------------------------------------------------------------------

 Structure from the checkpoint file:  "D:\Reaction optimization project\source code\DFT\opti\ligand\input\molecule.chk"
 -------------------
 Title Card Required
 -------------------
 Charge =  0 Multiplicity = 1

                         Standard orientation:
 ---------------------------------------------------------------------
 Center     Atomic      Atomic             Coordinates (Angstroms)
 Number     Number       Type             X           Y           Z
 ---------------------------------------------------------------------
      1          6           0       -0.456832    1.162463   -0.258995
      2          6           0       -1.853490    1.171285   -0.256850
      3          6           0       -2.527642   -0.017712    0.015471
      4          6           0       -1.771391   -1.170678    0.261690
      5          6           0        0.203669   -0.047703   -0.005647
      6          1           0        0.103414    2.064982   -0.489439
      7          1           0       -2.399083    2.087024   -0.467778
      8          1           0       -3.612743   -0.060762    0.032766
      9          1           0       -2.262789   -2.116926    0.479071
     10          6           0        1.713983   -0.129300   -0.057166
     11          8           0        2.322617   -1.003050   -0.616357
     12          8           0        2.378225    0.898786    0.550398
     13          1           0        1.767292    1.442949    1.075228
     14          7           0       -0.436087   -1.199039    0.243828
 ---------------------------------------------------------------------

 SCF Done:  E(RB3LYP) =  -436.868709086     A.U. after    1 cycles

 The electronic state is 1-A.
 Alpha  occ. eigenvalues --  -19.21746 -19.15644 -14.36583 -10.33752 -10.26737
 Alpha  occ. eigenvalues --  -10.25486 -10.24375 -10.23937 -10.23377  -1.11714
 Alpha  occ. eigenvalues --   -1.03755  -0.97589  -0.83798  -0.80384  -0.68733
 Alpha  occ. eigenvalues --   -0.66486  -0.63142  -0.58232  -0.52698  -0.51761
 Alpha  occ. eigenvalues --   -0.48044  -0.46810  -0.45509  -0.43541  -0.42284
 Alpha  occ. eigenvalues --   -0.41989  -0.39464  -0.33590  -0.32095  -0.30271
 Alpha  occ. eigenvalues --   -0.29118  -0.28065
 Alpha virt. eigenvalues --   -0.07244  -0.05812  -0.01727   0.00165   0.00932
 Alpha virt. eigenvalues --    0.01678   0.03135   0.04186   0.04357   0.05654
 Alpha virt. eigenvalues --    0.06208   0.07742   0.08609   0.08712   0.10052

 Mulliken charges:
               1
     1  C    0.094770
     2  C   -0.381905
     3  C    0.059596
     4  C   -0.205020
     5  C   -0.216848
     6  H    0.206296
     7  H    0.199321
     8  H    0.197126
     9  H    0.192083
    10  C    0.468115
    11  O   -0.400568
    12  O   -0.555479
    13  H    0.462497
    14  N   -0.119984
 Sum of Mulliken charges =   0.00000

 Dipole moment (field-independent basis, Debye):
    X=             -5.2422    Y=              3.9048    Z=              1.1972  Tot=              6.6454
 Quadrupole moment (field-independent basis, Debye-Ang):
   XX=            -55.1080   YY=            -49.8819   ZZ=            -52.3406
   XY=              4.4596   XZ=              2.8183   YZ=             -0.7543

  Exact polarizability: 104.978  -0.682  85.788  -1.592  -1.374  50.810
 Approx polarizability: 155.733  -4.564 147.285  -4.058  -2.225  76.518

                      1                      2                      3
                      A                      A                      A
 Frequencies --     59.2809               133.5511               209.5461
 Red. masses --      6.4683                 5.4374                 6.4780
 Frc consts  --      0.0134                 0.0571                 0.1676
 IR Inten    --      1.8319                 2.8409                 3.4443

                      4                      5                      6
                      A                      A                      A
 Frequencies --    371.1389               375.3927               412.3868
 Red. masses --      7.5130                 4.4599                 3.6103
 Frc consts  --      0.6097                 0.3703                 0.3617
 IR Inten    --      0.3472                 8.4453                 6.5276

                      7                      8                      9
                      A                      A                      A
 Frequencies --    511.3994               547.8229               628.0047
 Red. masses --      1.1434                 3.6185                 7.1524
 Frc consts  --      0.1762                 0.6398                 1.6620
 IR Inten    --    104.0470                10.8798                 3.9976

                     10                     11                     12
                      A                      A                      A
 Frequencies --    664.2846               722.9077               761.7404
 Red. masses --      7.5088                 5.2124                 1.5561
 Frc consts  --      1.9522                 1.6049                 0.5320
 IR Inten    --     11.5851                22.5647                33.4296

                     13                     14                     15
                      A                      A                      A
 Frequencies --    791.8829               822.6606               916.0702
 Red. masses --      6.6814                 3.3763                 1.2968
 Frc consts  --      2.4685                 1.3463                 0.6412
 IR Inten    --      8.1197                11.9384                 0.5151

                     16                     17                     18
                      A                      A                      A
 Frequencies --    986.0557              1008.6765              1017.0206
 Red. masses --      1.4127                 6.6062                 1.3433
 Frc consts  --      0.8093                 3.9601                 0.8186
 IR Inten    --      0.4415                 5.9179                 0.1734

                     19                     20                     21
                      A                      A                      A
 Frequencies --   1067.6334              1101.4877              1135.8053
 Red. masses --      2.9324                 2.4926                 1.8177
 Frc consts  --      1.9693                 1.7818                 1.3816
 IR Inten    --      8.1195                44.5317                15.7596

                     22                     23                     24
                      A                      A                      A
 Frequencies --   1192.5680              1216.4037              1303.8758
 Red. masses --      1.1680                 1.6413                 2.6539
 Frc consts  --      0.9788                 1.4309                 2.6583
 IR Inten    --      0.7849                55.3381               215.2551

                     25                     26                     27
                      A                      A                      A
 Frequencies --   1317.7141              1341.8238              1466.3750
 Red. masses --      3.6795                 1.9095                 2.0152
 Frc consts  --      3.7643                 2.0257                 2.5531
 IR Inten    --     44.9989               159.2772                 9.9713

                     28                     29                     30
                      A                      A                      A
 Frequencies --   1511.6696              1622.6773              1631.9240
 Red. masses --      2.2329                 5.3018                 5.4380
 Frc consts  --      3.0063                 8.2250                 8.5327
 IR Inten    --      3.3619                24.5843                 8.1519

                     31                     32                     33
                      A                      A                      A
 Frequencies --   1857.7014              3181.7685              3190.0362
 Red. masses --     11.0718                 1.0891                 1.0890
 Frc consts  --     22.5124                 6.4961                 6.5296
 IR Inten    --    293.6776                12.9993                 1.7072

                     34                     35                     36
                      A                      A                      A
 Frequencies --   3203.6981              3217.1843              3725.2223
 Red. masses --      1.0928                 1.0979                 1.0661
 Frc consts  --      6.6086                 6.6949                 8.7166
 IR Inten    --     13.2018                11.9778                33.0369

 - Thermochemistry -
 -------------------
 Temperature   298.150 Kelvin.  Pressure   1.00000 Atm.
 Atom     1 has atomic number  6 and mass  12.00000

 Molecular mass:   123.03203 amu.
 Principal axes and moments of inertia in atomic units:
                           1         2         3
     Eigenvalues --   463.363251486.416601835.19415
           X            0.99995   0.00905   0.00439
           Y           -0.00898   0.99986  -0.01439
           Z           -0.00452   0.01435   0.99989
 This molecule is an asymmetric top.
 Rotational symmetry number  1.
 Warning -- assumption of classical behavior for rotation
           may cause significant error
 Rotational temperatures (Kelvin)      0.18692     0.05827     0.04720
 Rotational constants (GHZ):           3.89487     1.21416     0.98341
 Zero-point vibrational energy     270507.9 (Joules/Mol)
                                   64.65294 (Kcal/Mol)
 Warning -- explicit consideration of   8 degrees of freedom as
           vibrations may cause significant error
 Vibrational temperatures:     85.29   192.15   301.49   533.99   540.11
          (Kelvin)            593.33   735.79   788.19   903.56   955.76
                             1040.10  1095.97  1139.34  1183.62  1318.02
                             1418.71  1451.26  1463.26  1536.08  1584.79
                             1634.17  1715.84  1750.13  1875.98  1895.89
                             1930.58  2109.78  2174.95  2334.67  2347.97
                             2672.81  4577.85  4589.74  4609.40  4628.80
                             5359.76

 Zero-point correction=                           0.103031 (Hartree/Particle)
 Thermal correction to Energy=                    0.110210
 Thermal correction to Enthalpy=                  0.111154
 Thermal correction to Gibbs Free Energy=         0.070727
 Sum of electronic and zero-point Energies=           -436.765678
 Sum of electronic and thermal Energies=              -436.758499
 Sum of electronic and thermal Enthalpies=            -436.757555
 Sum of electronic and thermal Free Energies=         -436.797983

                     E (Thermal)             CV                S
                      KCal/Mol        Cal/Mol-Kelvin    Cal/Mol-Kelvin
 Total                   69.158             26.727             85.087
 Electronic               0.000              0.000              0.000
 Translational            0.889              2.981             40.336
 Rotational               0.889              2.981             28.626
 Vibrational             67.380             20.766             16.125
 Vibration     1          0.597              1.974              4.481
 Vibration     2          0.613              1.920              2.894
 Vibration     3          0.642              1.826              2.048
 Vibration     4          0.743              1.531              1.075
 Vibration     5          0.746              1.523              1.058
 Vibration     6          0.776              1.443              0.918
 Vibration     7          0.867              1.225              0.630
 Vibration     8          0.903              1.144              0.549

 Normal termination of Gaussian 09 at Sat Sep 16 04:11:12 2023.
