 Gaussian 09, Revision D.01,
 Gaussian 09:  EM64W-G09RevD.01 13-Apr-2013

 ----------------------------------------------------------------------
 # opt freq b3lyp/6-31+g(d) geom=connectivity empiricaldispersion=gd3 s
 cf=maxcycle=1000
 ----------------------------------------------------------------------

 -------------------
 Title Card Required
 -------------------
 Symbolic Z-matrix:
 Charge =  0 Multiplicity = 1

 SCF Done:  E(RB3LYP) =  -386.341212946     A.U. after   12 cycles
 SCF Done:  E(RB3LYP) =  -386.341314023     A.U. after   10 cycles
 SCF Done:  E(RB3LYP) =  -386.341330841     A.U. after    9 cycles
 SCF Done:  E(RB3LYP) =  -386.341334467     A.U. after    8 cycles
 SCF Done:  E(RB3LYP) =  -386.341334346     A.U. after    7 cycles
 Optimization completed.
    -- Stationary point found.
 Normal termination of Gaussian 09 at Sat Sep 16 01:59:00 2023.

 ---------------------------------------------------------------------
 #N Geom=AllCheck Guess=TCheck SCRF=Check GenChk RB3LYP/6-31+G(d) Freq
 ---------------------------------------------------------------------

 Structure from the checkpoint file:  "D:\input\Lg2.chk"
 -------------------
 Title Card Required
 -------------------
 Charge =  0 Multiplicity = 1

                         Standard orientation:
 ---------------------------------------------------------------------
 Center     Atomic      Atomic             Coordinates (Angstroms)
 Number     Number       Type             X           Y           Z
 ---------------------------------------------------------------------
      1          6           0        1.439916    1.296363    0.073587
      2          6           0       -0.063671    1.408922    0.379380
      3          6           0       -0.874151    0.463345   -0.511187
      4          6           0       -0.402244   -0.992067   -0.375652
      5          6           0        1.098502   -1.108598   -0.651624
      6          6           0        1.922813   -0.154809    0.228016
      7          1           0       -0.251240    1.142287    1.426879
      8          1           0       -0.410323    2.442572    0.232792
      9          1           0        1.630925    1.639108   -0.955167
     10          1           0        2.005311    1.963083    0.736633
     11          1           0       -0.965597   -1.602942   -1.098929
     12          1           0        1.401470   -2.149455   -0.488357
     13          1           0        1.273916   -0.882264   -1.713428
     14          1           0        1.824576   -0.462170    1.276493
     15          1           0        2.985714   -0.231668   -0.034286
     16          1           0       -0.759227    0.760642   -1.566713
     17          8           0       -0.644044   -1.477927    0.946424
     18          1           0       -1.566819   -1.260989    1.162939
     19          8           0       -2.270461    0.452662   -0.168481
     20          1           0       -2.579656    1.364977   -0.057528
 ---------------------------------------------------------------------

 SCF Done:  E(RB3LYP) =  -386.341334346     A.U. after    1 cycles

 The electronic state is 1-A.
 Alpha  occ. eigenvalues --  -19.16886 -19.14831 -10.24339 -10.23632 -10.19049
 Alpha  occ. eigenvalues --  -10.19009 -10.18553 -10.18255  -1.04140  -1.01225
 Alpha  occ. eigenvalues --   -0.82613  -0.74673  -0.73453  -0.62756  -0.61172
 Alpha  occ. eigenvalues --   -0.56000  -0.52277  -0.49852  -0.49316  -0.45412
 Alpha  occ. eigenvalues --   -0.42973  -0.41240  -0.40658  -0.39349  -0.37555
 Alpha  occ. eigenvalues --   -0.36308  -0.34281  -0.33256  -0.32407  -0.31158
 Alpha  occ. eigenvalues --   -0.28719  -0.26904
 Alpha virt. eigenvalues --   -0.00658   0.00848   0.01768   0.02469   0.03826
 Alpha virt. eigenvalues --    0.04494   0.05356   0.05879   0.06637   0.08744
 Alpha virt. eigenvalues --    0.09411   0.09625   0.10057   0.10343   0.10957

 Mulliken charges:
               1
     1  C   -0.417267
     2  C   -0.388195
     3  C   -0.060331
     4  C    0.127636
     5  C   -0.481352
     6  C   -0.358520
     7  H    0.228830
     8  H    0.183148
     9  H    0.195242
    10  H    0.198017
    11  H    0.177725
    12  H    0.213706
    13  H    0.198603
    14  H    0.224820
    15  H    0.192640
    16  H    0.184139
    17  O   -0.674288
    18  H    0.486276
    19  O   -0.692968
    20  H    0.462139
 Sum of Mulliken charges =   0.00000

 Dipole moment (field-independent basis, Debye):
    X=              0.1973    Y=              2.3074    Z=             -0.9385  Tot=              2.4987
 Quadrupole moment (field-independent basis, Debye-Ang):
   XX=            -50.3417   YY=            -50.3392   ZZ=            -51.2059
   XY=             -2.9947   XZ=             -1.6153   YZ=              1.9427

  Exact polarizability:  81.772  -0.973  77.136  -0.657   1.372  69.746
 Approx polarizability: 103.828  -1.187 101.028  -2.050  -0.788 103.157

                      1                      2                      3
                      A                      A                      A
 Frequencies --    148.8202               184.6035               252.1780
 Red. masses --      3.9421                 2.5451                 1.5249
 Frc consts  --      0.0514                 0.0511                 0.0571
 IR Inten    --      3.3319                 0.8062                49.0979

                      4                      5                      6
                      A                      A                      A
 Frequencies --    273.8414               310.3360               369.0476
 Red. masses --      1.9969                 2.1118                 3.3435
 Frc consts  --      0.0882                 0.1198                 0.2683
 IR Inten    --     67.6690                 3.8151                 8.4736

                      7                      8                      9
                      A                      A                      A
 Frequencies --    389.8290               414.4828               454.2250
 Red. masses --      2.0312                 2.3023                 1.3873
 Frc consts  --      0.1819                 0.2330                 0.1686
 IR Inten    --      2.3630                24.9679               110.6994

                     10                     11                     12
                      A                      A                      A
 Frequencies --    502.4074               599.5088               674.4143
 Red. masses --      2.3926                 2.7785                 2.6475
 Frc consts  --      0.3558                 0.5884                 0.7095
 IR Inten    --      8.0876                12.6379                 7.3329

                     13                     14                     15
                      A                      A                      A
 Frequencies --    786.5903               836.2123               858.0216
 Red. masses --      2.4635                 1.8366                 2.4858
 Frc consts  --      0.8981                 0.7566                 1.0782
 IR Inten    --      2.2057                 6.2763                 4.9587

                     16                     17                     18
                      A                      A                      A
 Frequencies --    898.1528               934.8200               974.8677
 Red. masses --      2.0871                 1.6685                 2.3908
 Frc consts  --      0.9920                 0.8591                 1.3387
 IR Inten    --      7.6510                14.3131                 4.1177

                     19                     20                     21
                      A                      A                      A
 Frequencies --   1008.5154              1040.6851              1062.4351
 Red. masses --      2.2569                 1.6990                 1.8465
 Frc consts  --      1.3524                 1.0841                 1.2280
 IR Inten    --     53.4136                12.9404                30.9488

                     22                     23                     24
                      A                      A                      A
 Frequencies --   1081.9270              1092.6202              1150.3576
 Red. masses --      4.3394                 2.2336                 1.2150
 Frc consts  --      2.9928                 1.5711                 0.9473
 IR Inten    --     54.2237                23.5873                 8.2826

                     25                     26                     27
                      A                      A                      A
 Frequencies --   1160.4859              1182.1953              1266.8066
 Red. masses --      2.2052                 1.1548                 1.1765
 Frc consts  --      1.7498                 0.9509                 1.1124
 IR Inten    --     12.3337                33.0573                16.2118

                     28                     29                     30
                      A                      A                      A
 Frequencies --   1267.7386              1287.6841              1305.8752
 Red. masses --      1.2577                 1.2627                 1.2229
 Frc consts  --      1.1910                 1.2336                 1.2287
 IR Inten    --     39.2152                 6.1488                 9.9527

                     31                     32                     33
                      A                      A                      A
 Frequencies --   1350.8070              1369.3375              1379.9283
 Red. masses --      1.2275                 1.3030                 1.3411
 Frc consts  --      1.3196                 1.4395                 1.5046
 IR Inten    --      1.8350                 6.0161                13.1828

                     34                     35                     36
                      A                      A                      A
 Frequencies --   1393.0665              1398.8819              1418.1617
 Red. masses --      1.3848                 1.4845                 1.4771
 Frc consts  --      1.5834                 1.7115                 1.7503
 IR Inten    --      1.8913                 2.8837                 0.5911

                     37                     38                     39
                      A                      A                      A
 Frequencies --   1425.3515              1443.4013              1502.0970
 Red. masses --      1.5137                 1.6533                 1.0904
 Frc consts  --      1.8119                 2.0295                 1.4495
 IR Inten    --     29.0341                 8.9058                 3.2058

                     40                     41                     42
                      A                      A                      A
 Frequencies --   1507.9072              1514.7506              1526.5050
 Red. masses --      1.0999                 1.0815                 1.0953
 Frc consts  --      1.4735                 1.4621                 1.5038
 IR Inten    --      5.9926                 7.5817                 4.6644

                     43                     44                     45
                      A                      A                      A
 Frequencies --   2987.2957              3001.4510              3012.5557
 Red. masses --      1.0830                 1.0832                 1.0680
 Frc consts  --      5.6943                 5.7495                 5.7108
 IR Inten    --     25.0682                59.6852                30.5861

                     46                     47                     48
                      A                      A                      A
 Frequencies --   3024.4576              3034.4789              3045.3822
 Red. masses --      1.0663                 1.0688                 1.0635
 Frc consts  --      5.7467                 5.7987                 5.8114
 IR Inten    --     60.9443                54.9612                29.1354

                     49                     50                     51
                      A                      A                      A
 Frequencies --   3069.2647              3081.5825              3085.7323
 Red. masses --      1.0925                 1.0988                 1.0968
 Frc consts  --      6.0638                 6.1475                 6.1531
 IR Inten    --     49.6983                22.0139                34.8919

                     52                     53                     54
                      A                      A                      A
 Frequencies --   3093.8409              3718.5377              3751.7967
 Red. masses --      1.1013                 1.0656                 1.0666
 Frc consts  --      6.2108                 8.6812                 8.8457
 IR Inten    --     64.3543                39.9684                20.3914

 - Thermochemistry -
 -------------------
 Temperature   298.150 Kelvin.  Pressure   1.00000 Atm.
 Atom     1 has atomic number  6 and mass  12.00000

 Molecular mass:   116.08373 amu.
 Principal axes and moments of inertia in atomic units:
                           1         2         3
     Eigenvalues --   637.14189 921.044581269.01766
           X            0.99994  -0.00998  -0.00374
           Y            0.01009   0.99947   0.03111
           Z            0.00343  -0.03114   0.99951
 This molecule is an asymmetric top.
 Rotational symmetry number  1.
 Warning -- assumption of classical behavior for rotation
           may cause significant error
 Rotational temperatures (Kelvin)      0.13594     0.09404     0.06825
 Rotational constants (GHZ):           2.83256     1.95945     1.42216
 Zero-point vibrational energy     471964.2 (Joules/Mol)
                                  112.80216 (Kcal/Mol)
 Warning -- explicit consideration of  11 degrees of freedom as
           vibrations may cause significant error
 Vibrational temperatures:    214.12   265.60   362.83   394.00   446.50
          (Kelvin)            530.98   560.88   596.35   653.53   722.85
                              862.56   970.33  1131.73  1203.12  1234.50
                             1292.24  1345.00  1402.62  1451.03  1497.31
                             1528.61  1556.65  1572.03  1655.11  1669.68
                             1700.91  1822.65  1823.99  1852.69  1878.86
                             1943.51  1970.17  1985.41  2004.31  2012.68
                             2040.42  2050.76  2076.73  2161.18  2169.54
                             2179.39  2196.30  4298.05  4318.41  4334.39
                             4351.51  4365.93  4381.62  4415.98  4433.70
                             4439.67  4451.34  5350.14  5397.99

 Zero-point correction=                           0.179762 (Hartree/Particle)
 Thermal correction to Energy=                    0.187582
 Thermal correction to Enthalpy=                  0.188526
 Thermal correction to Gibbs Free Energy=         0.148209
 Sum of electronic and zero-point Energies=           -386.161573
 Sum of electronic and thermal Energies=              -386.153753
 Sum of electronic and thermal Enthalpies=            -386.152808
 Sum of electronic and thermal Free Energies=         -386.193125

                     E (Thermal)             CV                S
                      KCal/Mol        Cal/Mol-Kelvin    Cal/Mol-Kelvin
 Total                  117.709             31.087             84.854
 Electronic               0.000              0.000              0.000
 Translational            0.889              2.981             40.163
 Rotational               0.889              2.981             28.101
 Vibrational            115.932             25.125             16.591
 Vibration     1          0.618              1.904              2.687
 Vibration     2          0.631              1.861              2.281
 Vibration     3          0.664              1.759              1.715
 Vibration     4          0.676              1.722              1.572
 Vibration     5          0.699              1.654              1.361
 Vibration     6          0.741              1.536              1.084
 Vibration     7          0.758              1.492              1.001
 Vibration     8          0.778              1.439              0.911
 Vibration     9          0.813              1.352              0.783
 Vibration    10          0.858              1.245              0.652
 Vibration    11          0.958              1.033              0.451

 Normal termination of Gaussian 09 at Sat Sep 16 02:01:53 2023.
